REMARK  Name = 
REMARK  7 active torsions:
REMARK  status: ('A' for Active; 'I' for Inactive)
REMARK    1  A    between atoms: C_1  and  C_2
REMARK    2  A    between atoms: C_2  and  O_3
REMARK    3  A    between atoms: O_3  and  C_4
REMARK    4  A    between atoms: C_4  and  C_6
REMARK    5  A    between atoms: C_11  and  S_12
REMARK    6  A    between atoms: S_12  and  N_15
REMARK    7  A    between atoms: N_15  and  C_16
REMARK                            x       y       z     vdW  Elec       q    Type
REMARK                         _______ _______ _______ _____ _____    ______ ____
ROOT
ATOM      1  S   UNL     1       0.375  -0.071   0.131  0.00  0.00    +0.073 S 
ATOM      2  O   UNL     1       0.530  -1.150   1.080  0.00  0.00    -0.150 OA
ATOM      3  O   UNL     1       0.239   1.313   0.527  0.00  0.00    -0.150 OA
ENDROOT
BRANCH   1   9
ATOM      4  C   UNL     1      -2.246   0.067  -0.740  0.00  0.00    +0.086 A 
ATOM      5  C   UNL     1      -3.266  -0.200  -1.665  0.00  0.00    +0.017 A 
ATOM      6  C   UNL     1      -3.032  -1.053  -2.745  0.00  0.00    +0.001 A 
ATOM      7  C   UNL     1      -1.780  -1.643  -2.909  0.00  0.00    +0.002 A 
ATOM      8  C   UNL     1      -0.752  -1.366  -2.006  0.00  0.00    +0.029 A 
ATOM      9  C   UNL     1      -0.981  -0.498  -0.927  0.00  0.00    +0.122 A 
BRANCH   4  10
ATOM     10  C   UNL     1      -2.601   0.928   0.404  0.00  0.00    +0.341 C 
ATOM     11  O   UNL     1      -3.195   1.986   0.290  0.00  0.00    -0.245 OA
BRANCH  10  12
ATOM     12  O   UNL     1      -2.265   0.284   1.544  0.00  0.00    -0.461 OA
BRANCH  12  14
ATOM     13  C   UNL     1      -3.947   0.689   3.235  0.00  0.00    +0.048 C 
ATOM     14  C   UNL     1      -2.539   0.996   2.760  0.00  0.00    +0.229 C 
ENDBRANCH  12  14
ENDBRANCH  10  12
ENDBRANCH   4  10
ENDBRANCH   1   9
BRANCH   1  15
ATOM     15  N   UNL     1       1.699  -0.082  -0.964  0.00  0.00    -0.215 N 
ATOM     16  H   UNL     1       1.606   0.776  -1.520  0.00  0.00    +0.174 HD
BRANCH  15  17
ATOM     17  C   UNL     1       2.990  -0.077  -0.313  0.00  0.00    +0.066 A 
ATOM     18  C   UNL     1       3.467  -1.255   0.270  0.00  0.00    +0.029 A 
ATOM     19  C   UNL     1       4.699  -1.257   0.927  0.00  0.00    +0.040 A 
ATOM     20  C   UNL     1       5.444  -0.084   0.999  0.00  0.00    +0.125 A 
ATOM     21  F   UNL     1       6.625  -0.094   1.629  0.00  0.00    -0.205 F 
ATOM     22  C   UNL     1       4.987   1.095   0.423  0.00  0.00    +0.060 A 
ATOM     23  C   UNL     1       3.758   1.098  -0.233  0.00  0.00    +0.066 A 
ATOM     24 CL   UNL     1       3.216   2.561  -0.974  0.00  0.00    -0.081 Cl
ENDBRANCH  15  17
ENDBRANCH   1  15
TORSDOF 6
