REMARK  Name = 
REMARK  6 active torsions:
REMARK  status: ('A' for Active; 'I' for Inactive)
REMARK    1  A    between atoms: C_1  and  C_2
REMARK    2  A    between atoms: C_4  and  C_5
REMARK    3  A    between atoms: C_7  and  N_8
REMARK    4  A    between atoms: C_9  and  C_11
REMARK    5  A    between atoms: C_15  and  C_16
REMARK    6  A    between atoms: C_19  and  C_20
REMARK                            x       y       z     vdW  Elec       q    Type
REMARK                         _______ _______ _______ _____ _____    ______ ____
ROOT
ATOM      1  C   UNL     1       0.728  -0.501  -2.315  0.00  0.00    +0.144 A 
ATOM      2  C   UNL     1       1.226  -0.845  -3.560  0.00  0.00    +0.143 A 
ATOM      3  N   UNL     1       2.545  -1.079  -3.764  0.00  0.00    -0.259 NA
ATOM      4  C   UNL     1       3.333  -0.953  -2.665  0.00  0.00    +0.139 A 
ATOM      5  C   UNL     1       2.848  -0.612  -1.399  0.00  0.00    +0.090 A 
ATOM      6  N   UNL     1       1.522  -0.374  -1.209  0.00  0.00    -0.239 NA
ENDROOT
BRANCH   5   7
ATOM      7  C   UNL     1       3.707  -0.479  -0.209  0.00  0.00    +0.002 A 
ATOM      8  C   UNL     1       3.424   0.489   0.774  0.00  0.00    +0.011 A 
ATOM      9  C   UNL     1       4.227   0.633   1.912  0.00  0.00    +0.019 A 
ATOM     10  C   UNL     1       5.334  -0.196   2.097  0.00  0.00    +0.052 A 
ATOM     11  C   UNL     1       5.630  -1.168   1.139  0.00  0.00    +0.019 A 
ATOM     12  C   UNL     1       4.825  -1.307   0.001  0.00  0.00    +0.011 A 
BRANCH  10  13
ATOM     13  C   UNL     1       6.157  -0.053   3.261  0.00  0.00    +0.099 C 
ATOM     14  N   UNL     1       6.825   0.062   4.203  0.00  0.00    -0.191 NA
ENDBRANCH  10  13
ENDBRANCH   5   7
BRANCH   1  16
ATOM     15  N   UNL     1      -1.064   0.030  -0.818  0.00  0.00    -0.280 N 
ATOM     16  C   UNL     1      -0.731  -0.256  -2.128  0.00  0.00    +0.268 C 
ATOM     17  O   UNL     1      -1.483  -0.325  -3.092  0.00  0.00    -0.268 OA
ATOM     18  H   UNL     1      -0.275   0.024  -0.175  0.00  0.00    +0.155 HD
BRANCH  15  25
ATOM     19  C   UNL     1      -3.687   1.070   3.203  0.00  0.00    +0.044 C 
ATOM     20  C   UNL     1      -3.622   0.852   1.720  0.00  0.00    -0.048 A 
ATOM     21  C   UNL     1      -4.789   0.878   0.949  0.00  0.00    +0.006 A 
ATOM     22  C   UNL     1      -4.737   0.652  -0.431  0.00  0.00    -0.048 A 
ATOM     23  C   UNL     1      -5.994   0.657  -1.251  0.00  0.00    +0.044 C 
ATOM     24  C   UNL     1      -3.504   0.360  -1.036  0.00  0.00    +0.026 A 
ATOM     25  C   UNL     1      -2.332   0.314  -0.280  0.00  0.00    +0.034 A 
ATOM     26  C   UNL     1      -2.401   0.559   1.098  0.00  0.00    +0.026 A 
ENDBRANCH  15  25
ENDBRANCH   1  16
TORSDOF 4
