REMARK  Name = 
REMARK  2 active torsions:
REMARK  status: ('A' for Active; 'I' for Inactive)
REMARK    1  A    between atoms: N_8  and  C_9
REMARK    2  A    between atoms: C_9  and  C_10
REMARK                            x       y       z     vdW  Elec       q    Type
REMARK                         _______ _______ _______ _____ _____    ______ ____
ROOT
ATOM      1  C   UNL     1      -0.648  -0.500   0.781  0.00  0.00    +0.120 C 
ENDROOT
BRANCH   1   2
ATOM      2  C   UNL     1      -1.648   0.636   0.694  0.00  0.00    -0.025 A 
ATOM      3  C   UNL     1      -1.251   1.961   0.990  0.00  0.00    +0.005 A 
ATOM      4  C   UNL     1      -2.135   3.047   0.902  0.00  0.00    +0.001 A 
ATOM      5  C   UNL     1      -3.457   2.847   0.529  0.00  0.00    +0.004 A 
ATOM      6  C   UNL     1      -3.870   1.548   0.279  0.00  0.00    -0.035 A 
ATOM      7  C   UNL     1      -2.997   0.430   0.381  0.00  0.00    -0.010 A 
ATOM      8  C   UNL     1      -3.789  -0.771   0.114  0.00  0.00    -0.014 A 
ATOM      9  C   UNL     1      -3.481  -2.123   0.153  0.00  0.00    +0.009 A 
ATOM     10  C   UNL     1      -4.475  -3.063  -0.151  0.00  0.00    +0.001 A 
ATOM     11  C   UNL     1      -5.776  -2.658  -0.479  0.00  0.00    +0.000 A 
ATOM     12  C   UNL     1      -6.108  -1.306  -0.498  0.00  0.00    +0.004 A 
ATOM     13  C   UNL     1      -5.114  -0.385  -0.196  0.00  0.00    -0.035 A 
ATOM     14  C   UNL     1      -5.263   1.115  -0.121  0.00  0.00    +0.071 C 
ENDBRANCH   1   2
BRANCH   1  22
ATOM     15  C   UNL     1       7.510   0.208  -1.020  0.00  0.00    +0.039 A 
ATOM     16  C   UNL     1       6.535   0.768  -1.802  0.00  0.00    +0.116 A 
ATOM     17  N   UNL     1       5.218   0.573  -1.604  0.00  0.00    -0.223 NA
ATOM     18  C   UNL     1       4.843  -0.214  -0.580  0.00  0.00    +0.218 A 
ATOM     19  N   UNL     1       3.482  -0.457  -0.376  0.00  0.00    -0.297 N 
ATOM     20  C   UNL     1       3.153  -0.857   0.999  0.00  0.00    +0.123 C 
ATOM     21  C   UNL     1       1.651  -1.198   1.126  0.00  0.00    +0.103 C 
ATOM     22  N   UNL     1       0.770  -0.102   0.660  0.00  0.00    -0.295 NA
ATOM     23  C   UNL     1       1.119   0.201  -0.752  0.00  0.00    +0.103 C 
ATOM     24  C   UNL     1       2.605   0.585  -0.930  0.00  0.00    +0.123 C 
ATOM     25  N   UNL     1       5.739  -0.804   0.233  0.00  0.00    -0.223 NA
ATOM     26  C   UNL     1       7.046  -0.582  -0.002  0.00  0.00    +0.116 A 
ENDBRANCH   1  22
TORSDOF 2
