REMARK  Name = 
REMARK  6 active torsions:
REMARK  status: ('A' for Active; 'I' for Inactive)
REMARK    1  A    between atoms: C_1  and  C_2
REMARK    2  A    between atoms: C_4  and  C_5
REMARK    3  A    between atoms: C_7  and  N_8
REMARK    4  A    between atoms: C_9  and  C_11
REMARK    5  A    between atoms: C_15  and  C_16
REMARK    6  A    between atoms: C_19  and  C_20
REMARK                            x       y       z     vdW  Elec       q    Type
REMARK                         _______ _______ _______ _____ _____    ______ ____
ROOT
ATOM      1  C   UNL     1       0.748  -0.464  -2.317  0.00  0.00    +0.144 A 
ATOM      2  C   UNL     1       1.257  -0.787  -3.564  0.00  0.00    +0.143 A 
ATOM      3  N   UNL     1       2.577  -1.023  -3.758  0.00  0.00    -0.259 NA
ATOM      4  C   UNL     1       3.355  -0.919  -2.650  0.00  0.00    +0.139 A 
ATOM      5  C   UNL     1       2.858  -0.599  -1.383  0.00  0.00    +0.090 A 
ATOM      6  N   UNL     1       1.532  -0.359  -1.202  0.00  0.00    -0.239 NA
ENDROOT
BRANCH   5   7
ATOM      7  C   UNL     1       3.707  -0.490  -0.182  0.00  0.00    +0.002 A 
ATOM      8  C   UNL     1       3.418   0.463   0.814  0.00  0.00    +0.011 A 
ATOM      9  C   UNL     1       4.210   0.584   1.962  0.00  0.00    +0.019 A 
ATOM     10  C   UNL     1       5.311  -0.253   2.144  0.00  0.00    +0.052 A 
ATOM     11  C   UNL     1       5.614  -1.210   1.173  0.00  0.00    +0.019 A 
ATOM     12  C   UNL     1       4.819  -1.327   0.025  0.00  0.00    +0.011 A 
BRANCH  10  13
ATOM     13  C   UNL     1       6.124  -0.134   3.319  0.00  0.00    +0.099 C 
ATOM     14  N   UNL     1       6.783  -0.039   4.270  0.00  0.00    -0.191 NA
ENDBRANCH  10  13
ENDBRANCH   5   7
BRANCH   1  16
ATOM     15  N   UNL     1      -1.056   0.048  -0.828  0.00  0.00    -0.280 N 
ATOM     16  C   UNL     1      -0.712  -0.216  -2.140  0.00  0.00    +0.268 C 
ATOM     17  O   UNL     1      -1.454  -0.264  -3.113  0.00  0.00    -0.268 OA
ATOM     18  H   UNL     1      -0.274   0.027  -0.178  0.00  0.00    +0.155 HD
BRANCH  15  25
ATOM     19  C   UNL     1      -3.714   1.026   3.184  0.00  0.00    +0.044 C 
ATOM     20  C   UNL     1      -3.635   0.835   1.698  0.00  0.00    -0.048 A 
ATOM     21  C   UNL     1      -4.794   0.881   0.917  0.00  0.00    +0.006 A 
ATOM     22  C   UNL     1      -4.730   0.679  -0.467  0.00  0.00    -0.048 A 
ATOM     23  C   UNL     1      -5.979   0.705  -1.298  0.00  0.00    +0.044 C 
ATOM     24  C   UNL     1      -3.492   0.393  -1.064  0.00  0.00    +0.026 A 
ATOM     25  C   UNL     1      -2.328   0.328  -0.298  0.00  0.00    +0.034 A 
ATOM     26  C   UNL     1      -2.409   0.548   1.083  0.00  0.00    +0.026 A 
ENDBRANCH  15  25
ENDBRANCH   1  16
TORSDOF 4
