REMARK  Name = 
REMARK  2 active torsions:
REMARK  status: ('A' for Active; 'I' for Inactive)
REMARK    1  A    between atoms: C_1  and  N_2
REMARK    2  A    between atoms: C_16  and  N_17
REMARK                            x       y       z     vdW  Elec       q    Type
REMARK                         _______ _______ _______ _____ _____    ______ ____
ROOT
ATOM      1  C   UNL     1      -2.846  -2.218  -1.317  0.00  0.00    +0.105 C 
ATOM      2  N   UNL     1      -2.069  -0.983  -1.298  0.00  0.00    -0.302 NA
ATOM      3  C   UNL     1      -0.787  -1.154  -1.995  0.00  0.00    +0.085 C 
ATOM      4  C   UNL     1       0.072   0.124  -1.996  0.00  0.00    +0.027 C 
ATOM      5  C   UNL     1       0.198   0.740  -0.579  0.00  0.00    +0.001 C 
ATOM      6  C   UNL     1       0.971   2.097  -0.612  0.00  0.00    +0.012 C 
ATOM      7  C   UNL     1       0.069   3.325  -0.491  0.00  0.00    +0.001 C 
ATOM      8  C   UNL     1      -0.766   3.286   0.792  0.00  0.00    +0.000 C 
ATOM      9  C   UNL     1      -1.305   1.890   1.130  0.00  0.00    +0.006 C 
ATOM     10  C   UNL     1      -1.262   0.979  -0.101  0.00  0.00    +0.017 C 
ATOM     11  C   UNL     1      -1.964  -0.377   0.055  0.00  0.00    +0.065 C 
ATOM     12  C   UNL     1      -1.274  -1.212   1.154  0.00  0.00    +0.054 C 
ATOM     13  C   UNL     1       0.234  -1.205   1.099  0.00  0.00    -0.042 A 
ATOM     14  C   UNL     1       0.936  -2.119   1.897  0.00  0.00    +0.006 A 
ATOM     15  C   UNL     1       2.329  -2.176   1.860  0.00  0.00    +0.023 A 
ATOM     16  C   UNL     1       3.046  -1.359   0.991  0.00  0.00    +0.025 A 
ATOM     17  C   UNL     1       2.351  -0.399   0.250  0.00  0.00    +0.027 A 
ATOM     18  C   UNL     1       0.944  -0.293   0.295  0.00  0.00    -0.036 A 
ENDROOT
BRANCH  16  19
ATOM     19  N   UNL     1       4.446  -1.351   1.022  0.00  0.00    -0.358 N 
ATOM     20  H   UNL     1       4.853  -2.235   1.308  0.00  0.00    +0.142 HD
ATOM     21  H   UNL     1       4.871  -0.986   0.175  0.00  0.00    +0.142 HD
ENDBRANCH  16  19
TORSDOF 1
