REMARK  Name = 
REMARK  7 active torsions:
REMARK  status: ('A' for Active; 'I' for Inactive)
REMARK    1  A    between atoms: C_1  and  C_2
REMARK    2  A    between atoms: C_2  and  O_3
REMARK    3  A    between atoms: O_3  and  C_4
REMARK    4  A    between atoms: C_4  and  C_6
REMARK    5  A    between atoms: C_11  and  S_12
REMARK    6  A    between atoms: S_12  and  N_15
REMARK    7  A    between atoms: N_15  and  C_16
REMARK                            x       y       z     vdW  Elec       q    Type
REMARK                         _______ _______ _______ _____ _____    ______ ____
ROOT
ATOM      1  S   UNL     1       0.375  -0.069   0.131  0.00  0.00    +0.073 S 
ATOM      2  O   UNL     1       0.534  -1.144   1.084  0.00  0.00    -0.150 OA
ATOM      3  O   UNL     1       0.233   1.316   0.522  0.00  0.00    -0.150 OA
ENDROOT
BRANCH   1   9
ATOM      4  C   UNL     1      -2.245   0.054  -0.742  0.00  0.00    +0.086 A 
ATOM      5  C   UNL     1      -3.263  -0.221  -1.667  0.00  0.00    +0.017 A 
ATOM      6  C   UNL     1      -3.025  -1.076  -2.744  0.00  0.00    +0.001 A 
ATOM      7  C   UNL     1      -1.770  -1.661  -2.905  0.00  0.00    +0.002 A 
ATOM      8  C   UNL     1      -0.744  -1.377  -2.002  0.00  0.00    +0.029 A 
ATOM      9  C   UNL     1      -0.977  -0.506  -0.926  0.00  0.00    +0.122 A 
BRANCH   4  10
ATOM     10  C   UNL     1      -2.606   0.918   0.398  0.00  0.00    +0.341 C 
ATOM     11  O   UNL     1      -3.204   1.973   0.280  0.00  0.00    -0.245 OA
BRANCH  10  12
ATOM     12  O   UNL     1      -2.268   0.280   1.541  0.00  0.00    -0.461 OA
BRANCH  12  14
ATOM     13  C   UNL     1      -3.952   0.683   3.229  0.00  0.00    +0.048 C 
ATOM     14  C   UNL     1      -2.546   0.994   2.754  0.00  0.00    +0.229 C 
ENDBRANCH  12  14
ENDBRANCH  10  12
ENDBRANCH   4  10
ENDBRANCH   1   9
BRANCH   1  15
ATOM     15  N   UNL     1       1.701  -0.079  -0.962  0.00  0.00    -0.215 N 
ATOM     16  H   UNL     1       1.605   0.777  -1.521  0.00  0.00    +0.174 HD
BRANCH  15  17
ATOM     17  C   UNL     1       2.991  -0.066  -0.310  0.00  0.00    +0.066 A 
ATOM     18  C   UNL     1       3.473  -1.240   0.277  0.00  0.00    +0.029 A 
ATOM     19  C   UNL     1       4.703  -1.235   0.936  0.00  0.00    +0.040 A 
ATOM     20  C   UNL     1       5.443  -0.059   1.004  0.00  0.00    +0.125 A 
ATOM     21  F   UNL     1       6.624  -0.061   1.636  0.00  0.00    -0.205 F 
ATOM     22  C   UNL     1       4.982   1.117   0.425  0.00  0.00    +0.060 A 
ATOM     23  C   UNL     1       3.753   1.112  -0.233  0.00  0.00    +0.066 A 
ATOM     24 CL   UNL     1       3.206   2.571  -0.979  0.00  0.00    -0.081 Cl
ENDBRANCH  15  17
ENDBRANCH   1  15
TORSDOF 6
