REMARK  Name = 
REMARK  8 active torsions:
REMARK  status: ('A' for Active; 'I' for Inactive)
REMARK    1  A    between atoms: N_2  and  C_4
REMARK    2  A    between atoms: C_5  and  O_6
REMARK    3  A    between atoms: O_6  and  C_7
REMARK    4  A    between atoms: C_7  and  C_8
REMARK    5  A    between atoms: C_8  and  C_9
REMARK    6  A    between atoms: C_9  and  C_10
REMARK    7  A    between atoms: C_21  and  O_22
REMARK    8  A    between atoms: C_23  and  O_24
REMARK                            x       y       z     vdW  Elec       q    Type
REMARK                         _______ _______ _______ _____ _____    ______ ____
ROOT
ATOM      1  C   UNL     1       1.754   0.693   0.500  0.00  0.00    +0.198 A 
ATOM      2  C   UNL     1       0.985  -0.333   1.063  0.00  0.00    +0.188 A 
ATOM      3  C   UNL     1       1.447  -1.629   0.875  0.00  0.00    +0.169 A 
ATOM      4  F   UNL     1       0.808  -2.683   1.398  0.00  0.00    -0.202 F 
ATOM      5  C   UNL     1       2.607  -1.878   0.147  0.00  0.00    +0.072 A 
ATOM      6  C   UNL     1       3.346  -0.847  -0.410  0.00  0.00    +0.098 A 
ATOM      7  N   UNL     1       4.456  -1.166  -1.101  0.00  0.00    -0.207 NA
ATOM      8  C   UNL     1       5.147  -0.142  -1.625  0.00  0.00    +0.277 A 
ATOM      9  C   UNL     1       4.741   1.169  -1.463  0.00  0.00    +0.277 A 
ATOM     10  N   UNL     1       3.641   1.520  -0.782  0.00  0.00    -0.205 NA
ATOM     11  C   UNL     1       2.923   0.498  -0.239  0.00  0.00    +0.127 A 
ENDROOT
BRANCH   1  13
ATOM     12  O   UNL     1       1.763   2.670   1.646  0.00  0.00    -0.126 OA
ATOM     13  N   UNL     1       1.314   2.051   0.671  0.00  0.00    +0.062 N 
ATOM     14  O   UNL     1       0.515   2.491  -0.168  0.00  0.00    -0.126 OA
ENDBRANCH   1  13
BRANCH   8  15
ATOM     15  O   UNL     1       6.274  -0.462  -2.325  0.00  0.00    -0.489 OA
ATOM     16  H   UNL     1       6.642   0.391  -2.622  0.00  0.00    +0.294 HD
ENDBRANCH   8  15
BRANCH   9  17
ATOM     17  O   UNL     1       5.445   2.202  -1.993  0.00  0.00    -0.489 OA
ATOM     18  H   UNL     1       4.905   2.961  -1.700  0.00  0.00    +0.294 HD
ENDBRANCH   9  17
BRANCH   2  19
ATOM     19  O   UNL     1      -0.129   0.031   1.764  0.00  0.00    -0.487 OA
BRANCH  19  20
ATOM     20  C   UNL     1      -1.102  -0.980   2.037  0.00  0.00    +0.229 C 
BRANCH  20  21
ATOM     21  C   UNL     1      -2.383  -0.311   2.539  0.00  0.00    +0.046 C 
BRANCH  21  22
ATOM     22  C   UNL     1      -2.977   0.710   1.560  0.00  0.00    +0.038 C 
BRANCH  22  23
ATOM     23  C   UNL     1      -3.367   0.119   0.227  0.00  0.00    -0.047 A 
ATOM     24  C   UNL     1      -4.411  -0.811   0.133  0.00  0.00    +0.003 A 
ATOM     25  C   UNL     1      -4.759  -1.362  -1.101  0.00  0.00    +0.000 A 
ATOM     26  C   UNL     1      -4.070  -0.986  -2.253  0.00  0.00    +0.000 A 
ATOM     27  C   UNL     1      -3.036  -0.057  -2.172  0.00  0.00    +0.000 A 
ATOM     28  C   UNL     1      -2.687   0.495  -0.939  0.00  0.00    +0.003 A 
ENDBRANCH  22  23
ENDBRANCH  21  22
ENDBRANCH  20  21
ENDBRANCH  19  20
ENDBRANCH   2  19
TORSDOF 8
