REMARK  Name = 
REMARK  11 active torsions:
REMARK  status: ('A' for Active; 'I' for Inactive)
REMARK    1  A    between atoms: C_1  and  C_2
REMARK    2  A    between atoms: C_5  and  C_6
REMARK    3  A    between atoms: C_9  and  C_10
REMARK    4  A    between atoms: C_13  and  C_14
REMARK    5  A    between atoms: N_16  and  C_17
REMARK    6  A    between atoms: C_20  and  O_21
REMARK    7  A    between atoms: O_21  and  S_22
REMARK    8  A    between atoms: S_22  and  C_23
REMARK    9  A    between atoms: C_26  and  N_27
REMARK   10  A    between atoms: N_30  and  C_31
REMARK   11  A    between atoms: C_37  and  C_38
REMARK                            x       y       z     vdW  Elec       q    Type
REMARK                         _______ _______ _______ _____ _____    ______ ____
ROOT
ATOM      1  C   UNL     1      -0.643  -0.010  -0.340  0.00  0.00    +0.248 C 
ATOM      2  O   UNL     1      -1.137  -1.125  -0.434  0.00  0.00    -0.270 OA
ATOM      3  N   UNL     1      -1.293   1.210  -0.377  0.00  0.00    -0.281 N 
ATOM      4  H   UNL     1      -0.705   2.032  -0.410  0.00  0.00    +0.155 HD
ENDROOT
BRANCH   1   8
ATOM      5  C   UNL     1       3.634   0.257   0.057  0.00  0.00    -0.018 A 
ATOM      6  C   UNL     1       2.792   1.040   0.867  0.00  0.00    +0.009 A 
ATOM      7  C   UNL     1       1.402   0.963   0.746  0.00  0.00    +0.013 A 
ATOM      8  C   UNL     1       0.833   0.097  -0.193  0.00  0.00    +0.037 A 
ATOM      9  C   UNL     1       1.653  -0.698  -0.997  0.00  0.00    +0.013 A 
ATOM     10  C   UNL     1       3.043  -0.607  -0.880  0.00  0.00    +0.009 A 
BRANCH   5  14
ATOM     11  C   UNL     1       7.915   0.669   0.441  0.00  0.00    +0.039 A 
ATOM     12  C   UNL     1       7.115   1.725  -0.004  0.00  0.00    +0.014 A 
ATOM     13  C   UNL     1       5.731   1.568  -0.131  0.00  0.00    +0.009 A 
ATOM     14  C   UNL     1       5.098   0.354   0.194  0.00  0.00    -0.015 A 
ATOM     15  C   UNL     1       5.897  -0.715   0.658  0.00  0.00    -0.042 A 
ATOM     16  C   UNL     1       5.305  -2.049   1.038  0.00  0.00    +0.044 C 
ATOM     17  C   UNL     1       7.293  -0.548   0.760  0.00  0.00    +0.017 A 
BRANCH  11  22
ATOM     18  C   UNL     1      12.493  -0.639   1.133  0.00  0.00    +0.111 C 
ATOM     19  C   UNL     1      11.376   0.285   0.879  0.00  0.00    +0.215 A 
ATOM     20  N   UNL     1      11.387   1.589   0.698  0.00  0.00    -0.112 NA
ATOM     21  N   UNL     1      10.075   1.961   0.493  0.00  0.00    -0.107 NA
ATOM     22  C   UNL     1       9.352   0.860   0.574  0.00  0.00    +0.248 A 
ATOM     23  O   UNL     1      10.119  -0.253   0.818  0.00  0.00    -0.421 OA
ENDBRANCH  11  22
ENDBRANCH   5  14
ENDBRANCH   1   8
BRANCH   3  24
ATOM     24  C   UNL     1      -2.678   1.445  -0.503  0.00  0.00    +0.036 A 
ATOM     25  C   UNL     1      -3.083   2.777  -0.620  0.00  0.00    +0.027 A 
ATOM     26  C   UNL     1      -4.430   3.087  -0.779  0.00  0.00    +0.052 A 
ATOM     27  C   UNL     1      -5.375   2.061  -0.826  0.00  0.00    +0.177 A 
ATOM     28  C   UNL     1      -5.021   0.707  -0.644  0.00  0.00    +0.077 A 
ATOM     29  C   UNL     1      -3.648   0.431  -0.510  0.00  0.00    +0.050 A 
BRANCH  28  30
ATOM     30  N   UNL     1      -6.007  -0.289  -0.647  0.00  0.00    -0.325 N 
ATOM     31  C   UNL     1      -5.659  -1.690  -0.982  0.00  0.00    +0.120 C 
ATOM     32  C   UNL     1      -5.315  -2.545   0.262  0.00  0.00    +0.103 C 
ATOM     33  N   UNL     1      -6.352  -2.471   1.316  0.00  0.00    -0.302 NA
ATOM     34  C   UNL     1      -5.946  -3.242   2.489  0.00  0.00    +0.105 C 
ATOM     35  C   UNL     1      -6.576  -1.054   1.673  0.00  0.00    +0.103 C 
ATOM     36  C   UNL     1      -7.001  -0.205   0.454  0.00  0.00    +0.120 C 
ENDBRANCH  28  30
BRANCH  27  37
ATOM     37  O   UNL     1      -6.692   2.394  -1.046  0.00  0.00    -0.344 OA
BRANCH  37  38
ATOM     38  S   UNL     1      -7.183   2.752  -2.564  0.00  0.00    +0.118 S 
ATOM     39  C   UNL     1      -7.309   1.107  -3.234  0.00  0.00    +0.242 C 
ATOM     40  O   UNL     1      -8.525   3.296  -2.479  0.00  0.00    -0.137 OA
ATOM     41  O   UNL     1      -6.145   3.468  -3.281  0.00  0.00    -0.137 OA
ENDBRANCH  37  38
ENDBRANCH  27  37
ENDBRANCH   3  24
TORSDOF 7
