REMARK  Name = 
REMARK  9 active torsions:
REMARK  status: ('A' for Active; 'I' for Inactive)
REMARK    1  A    between atoms: C_1  and  C_2
REMARK    2  A    between atoms: C_5  and  C_6
REMARK    3  A    between atoms: C_9  and  C_10
REMARK    4  A    between atoms: C_13  and  C_14
REMARK    5  A    between atoms: N_16  and  C_17
REMARK    6  A    between atoms: C_20  and  O_21
REMARK    7  A    between atoms: C_22  and  N_23
REMARK    8  A    between atoms: N_26  and  C_27
REMARK    9  A    between atoms: C_33  and  C_34
REMARK                            x       y       z     vdW  Elec       q    Type
REMARK                         _______ _______ _______ _____ _____    ______ ____
ROOT
ATOM      1  C   UNL     1      -3.337   0.249   0.045  0.00  0.00    -0.018 A 
ATOM      2  C   UNL     1      -2.588   0.610  -1.088  0.00  0.00    +0.009 A 
ATOM      3  C   UNL     1      -1.191   0.639  -1.046  0.00  0.00    +0.013 A 
ATOM      4  C   UNL     1      -0.524   0.310   0.139  0.00  0.00    +0.037 A 
ATOM      5  C   UNL     1      -1.256  -0.067   1.269  0.00  0.00    +0.013 A 
ATOM      6  C   UNL     1      -2.652  -0.087   1.223  0.00  0.00    +0.009 A 
ENDROOT
BRANCH   1  10
ATOM      7  C   UNL     1      -7.648   0.331  -0.030  0.00  0.00    +0.039 A 
ATOM      8  C   UNL     1      -6.892   1.506  -0.100  0.00  0.00    +0.014 A 
ATOM      9  C   UNL     1      -5.496   1.458  -0.081  0.00  0.00    +0.009 A 
ATOM     10  C   UNL     1      -4.808   0.235  -0.000  0.00  0.00    -0.015 A 
ATOM     11  C   UNL     1      -5.560  -0.959   0.041  0.00  0.00    -0.042 A 
ATOM     12  C   UNL     1      -4.903  -2.313   0.119  0.00  0.00    +0.044 C 
ATOM     13  C   UNL     1      -6.968  -0.895   0.042  0.00  0.00    +0.017 A 
BRANCH   7  18
ATOM     14  C   UNL     1     -12.158  -1.331   0.196  0.00  0.00    +0.111 C 
ATOM     15  C   UNL     1     -11.097  -0.320   0.064  0.00  0.00    +0.215 A 
ATOM     16  N   UNL     1     -11.191   0.982  -0.090  0.00  0.00    -0.112 NA
ATOM     17  N   UNL     1      -9.896   1.457  -0.155  0.00  0.00    -0.107 NA
ATOM     18  C   UNL     1      -9.103   0.409  -0.037  0.00  0.00    +0.248 A 
ATOM     19  O   UNL     1      -9.803  -0.764   0.106  0.00  0.00    -0.421 OA
ENDBRANCH   7  18
ENDBRANCH   1  10
BRANCH   4  20
ATOM     20  C   UNL     1       0.961   0.330   0.225  0.00  0.00    +0.248 C 
ATOM     21  O   UNL     1       1.513  -0.559   0.860  0.00  0.00    -0.270 OA
ATOM     22  N   UNL     1       1.555   1.412  -0.399  0.00  0.00    -0.281 N 
ATOM     23  H   UNL     1       0.936   2.141  -0.731  0.00  0.00    +0.155 HD
BRANCH  22  24
ATOM     24  C   UNL     1       2.936   1.679  -0.514  0.00  0.00    +0.036 A 
ATOM     25  C   UNL     1       3.305   2.919  -1.035  0.00  0.00    +0.027 A 
ATOM     26  C   UNL     1       4.651   3.250  -1.170  0.00  0.00    +0.049 A 
ATOM     27  C   UNL     1       5.638   2.333  -0.794  0.00  0.00    +0.138 A 
ATOM     28  C   UNL     1       5.317   1.054  -0.287  0.00  0.00    +0.074 A 
ATOM     29  C   UNL     1       3.940   0.770  -0.154  0.00  0.00    +0.050 A 
BRANCH  28  30
ATOM     30  N   UNL     1       6.272   0.114   0.086  0.00  0.00    -0.325 N 
ATOM     31  C   UNL     1       7.582   0.054  -0.584  0.00  0.00    +0.120 C 
ATOM     32  C   UNL     1       8.114  -1.399  -0.650  0.00  0.00    +0.103 C 
ATOM     33  N   UNL     1       8.208  -2.115   0.641  0.00  0.00    -0.302 NA
ATOM     34  C   UNL     1       9.558  -2.066   1.194  0.00  0.00    +0.105 C 
ATOM     35  C   UNL     1       7.229  -1.583   1.617  0.00  0.00    +0.103 C 
ATOM     36  C   UNL     1       5.944  -1.011   0.978  0.00  0.00    +0.120 C 
ENDBRANCH  28  30
BRANCH  27  37
ATOM     37  O   UNL     1       6.950   2.728  -0.901  0.00  0.00    -0.505 OA
ATOM     38  H   UNL     1       6.976   3.678  -1.091  0.00  0.00    +0.292 HD
ENDBRANCH  27  37
ENDBRANCH  22  24
ENDBRANCH   4  20
TORSDOF 6
