REMARK  Name = 
REMARK  2 active torsions:
REMARK  status: ('A' for Active; 'I' for Inactive)
REMARK    1  A    between atoms: N_8  and  C_9
REMARK    2  A    between atoms: C_9  and  C_10
REMARK                            x       y       z     vdW  Elec       q    Type
REMARK                         _______ _______ _______ _____ _____    ______ ____
ROOT
ATOM      1  C   UNL     1      -0.648  -0.496   0.784  0.00  0.00    +0.120 C 
ENDROOT
BRANCH   1   2
ATOM      2  C   UNL     1      -1.648   0.639   0.691  0.00  0.00    -0.025 A 
ATOM      3  C   UNL     1      -1.251   1.966   0.981  0.00  0.00    +0.005 A 
ATOM      4  C   UNL     1      -2.136   3.051   0.887  0.00  0.00    +0.001 A 
ATOM      5  C   UNL     1      -3.458   2.849   0.515  0.00  0.00    +0.004 A 
ATOM      6  C   UNL     1      -3.870   1.548   0.273  0.00  0.00    -0.035 A 
ATOM      7  C   UNL     1      -2.997   0.432   0.379  0.00  0.00    -0.010 A 
ATOM      8  C   UNL     1      -3.789  -0.771   0.119  0.00  0.00    -0.014 A 
ATOM      9  C   UNL     1      -3.480  -2.123   0.165  0.00  0.00    +0.009 A 
ATOM     10  C   UNL     1      -4.475  -3.065  -0.134  0.00  0.00    +0.001 A 
ATOM     11  C   UNL     1      -5.776  -2.661  -0.463  0.00  0.00    +0.000 A 
ATOM     12  C   UNL     1      -6.108  -1.309  -0.489  0.00  0.00    +0.004 A 
ATOM     13  C   UNL     1      -5.114  -0.387  -0.192  0.00  0.00    -0.035 A 
ATOM     14  C   UNL     1      -5.263   1.114  -0.124  0.00  0.00    +0.071 C 
ENDBRANCH   1   2
BRANCH   1  22
ATOM     15  C   UNL     1       7.509   0.204  -1.024  0.00  0.00    +0.039 A 
ATOM     16  C   UNL     1       6.534   0.760  -1.809  0.00  0.00    +0.116 A 
ATOM     17  N   UNL     1       5.217   0.566  -1.610  0.00  0.00    -0.223 NA
ATOM     18  C   UNL     1       4.842  -0.216  -0.581  0.00  0.00    +0.218 A 
ATOM     19  N   UNL     1       3.482  -0.459  -0.375  0.00  0.00    -0.297 N 
ATOM     20  C   UNL     1       3.153  -0.852   1.002  0.00  0.00    +0.123 C 
ATOM     21  C   UNL     1       1.651  -1.192   1.131  0.00  0.00    +0.103 C 
ATOM     22  N   UNL     1       0.771  -0.099   0.659  0.00  0.00    -0.295 NA
ATOM     23  C   UNL     1       1.118   0.197  -0.754  0.00  0.00    +0.103 C 
ATOM     24  C   UNL     1       2.605   0.580  -0.934  0.00  0.00    +0.123 C 
ATOM     25  N   UNL     1       5.739  -0.802   0.234  0.00  0.00    -0.223 NA
ATOM     26  C   UNL     1       7.046  -0.581  -0.002  0.00  0.00    +0.116 A 
ENDBRANCH   1  22
TORSDOF 2
