REMARK  Name = 
REMARK  5 active torsions:
REMARK  status: ('A' for Active; 'I' for Inactive)
REMARK    1  A    between atoms: C_1  and  N_2
REMARK    2  A    between atoms: C_11  and  S_12
REMARK    3  A    between atoms: S_12  and  C_13
REMARK    4  A    between atoms: N_22  and  C_23
REMARK    5  A    between atoms: C_23  and  C_24
REMARK                            x       y       z     vdW  Elec       q    Type
REMARK                         _______ _______ _______ _____ _____    ______ ____
ROOT
ATOM      1  C   UNL     1      -2.273  -3.114   2.352  0.00  0.00    +0.155 C 
ATOM      2  N   UNL     1      -2.238  -1.667   2.276  0.00  0.00    -0.280 N 
ATOM      3  C   UNL     1      -2.709  -0.889   3.329  0.00  0.00    +0.331 A 
ATOM      4  O   UNL     1      -3.175  -1.349   4.371  0.00  0.00    -0.246 OA
ATOM      5  N   UNL     1      -2.640   0.484   3.177  0.00  0.00    -0.273 N 
ATOM      6  C   UNL     1      -2.155   1.182   2.095  0.00  0.00    +0.280 A 
ATOM      7  O   UNL     1      -2.137   2.407   2.059  0.00  0.00    -0.265 OA
ATOM      8  C   UNL     1      -1.692   0.327   1.059  0.00  0.00    +0.152 A 
ATOM      9  C   UNL     1      -1.736  -1.035   1.158  0.00  0.00    +0.169 A 
ATOM     10  N   UNL     1      -1.237  -1.644   0.051  0.00  0.00    -0.203 NA
ATOM     11  C   UNL     1      -0.874  -0.648  -0.733  0.00  0.00    +0.179 A 
ATOM     12  N   UNL     1      -1.147   0.583  -0.176  0.00  0.00    -0.305 N 
ATOM     13  H   UNL     1      -2.987   1.029   3.951  0.00  0.00    +0.173 HD
ENDROOT
BRANCH  11  14
ATOM     14  S   UNL     1      -0.138  -0.874  -2.286  0.00  0.00    -0.014 S 
BRANCH  14  15
ATOM     15  C   UNL     1       1.490  -0.707  -1.740  0.00  0.00    +0.175 A 
ATOM     16  N   UNL     1       2.028   0.336  -1.154  0.00  0.00    -0.222 NA
ATOM     17  C   UNL     1       3.333  -0.032  -0.925  0.00  0.00    +0.090 A 
ATOM     18  C   UNL     1       4.375   0.688  -0.322  0.00  0.00    +0.030 A 
ATOM     19  C   UNL     1       5.631   0.080  -0.204  0.00  0.00    +0.002 A 
ATOM     20  C   UNL     1       5.847  -1.217  -0.678  0.00  0.00    +0.002 A 
ATOM     21  C   UNL     1       4.821  -1.952  -1.284  0.00  0.00    +0.028 A 
ATOM     22  C   UNL     1       3.580  -1.323  -1.389  0.00  0.00    +0.067 A 
ATOM     23  N   UNL     1       2.377  -1.728  -1.909  0.00  0.00    -0.333 N 
ATOM     24  H   UNL     1       2.168  -2.622  -2.327  0.00  0.00    +0.168 HD
ENDBRANCH  14  15
ENDBRANCH  11  14
BRANCH  12  25
ATOM     25  C   UNL     1      -0.905   1.900  -0.741  0.00  0.00    +0.200 C 
BRANCH  25  26
ATOM     26  C   UNL     1      -2.136   2.430  -1.364  0.00  0.00    +0.145 A 
ATOM     27  C   UNL     1      -3.122   3.305  -0.969  0.00  0.00    +0.157 A 
ATOM     28  N   UNL     1      -4.053   3.444  -1.967  0.00  0.00    -0.224 NA
ATOM     29  C   UNL     1      -3.602   2.661  -2.920  0.00  0.00    +0.308 A 
ATOM     30  O   UNL     1      -2.440   2.011  -2.633  0.00  0.00    -0.446 OA
ENDBRANCH  25  26
ENDBRANCH  12  25
TORSDOF 4
