REMARK  Name = 
REMARK  11 active torsions:
REMARK  status: ('A' for Active; 'I' for Inactive)
REMARK    1  A    between atoms: C_1  and  C_2
REMARK    2  A    between atoms: C_5  and  C_6
REMARK    3  A    between atoms: C_9  and  C_10
REMARK    4  A    between atoms: C_13  and  C_14
REMARK    5  A    between atoms: N_16  and  C_17
REMARK    6  A    between atoms: C_20  and  O_21
REMARK    7  A    between atoms: O_21  and  S_22
REMARK    8  A    between atoms: S_22  and  C_23
REMARK    9  A    between atoms: C_26  and  N_27
REMARK   10  A    between atoms: N_30  and  C_31
REMARK   11  A    between atoms: C_37  and  C_38
REMARK                            x       y       z     vdW  Elec       q    Type
REMARK                         _______ _______ _______ _____ _____    ______ ____
ROOT
ATOM      1  C   UNL     1      -0.642  -0.006  -0.351  0.00  0.00    +0.248 C 
ATOM      2  O   UNL     1      -1.131  -1.121  -0.472  0.00  0.00    -0.270 OA
ATOM      3  N   UNL     1      -1.300   1.211  -0.357  0.00  0.00    -0.281 N 
ATOM      4  H   UNL     1      -0.717   2.039  -0.361  0.00  0.00    +0.155 HD
ENDROOT
BRANCH   1   8
ATOM      5  C   UNL     1       3.632   0.276   0.057  0.00  0.00    -0.018 A 
ATOM      6  C   UNL     1       2.785   1.033   0.885  0.00  0.00    +0.009 A 
ATOM      7  C   UNL     1       1.396   0.951   0.762  0.00  0.00    +0.013 A 
ATOM      8  C   UNL     1       0.833   0.104  -0.198  0.00  0.00    +0.037 A 
ATOM      9  C   UNL     1       1.657  -0.668  -1.019  0.00  0.00    +0.013 A 
ATOM     10  C   UNL     1       3.047  -0.571  -0.900  0.00  0.00    +0.009 A 
BRANCH   5  14
ATOM     11  C   UNL     1       7.910   0.709   0.442  0.00  0.00    +0.039 A 
ATOM     12  C   UNL     1       7.101   1.770   0.023  0.00  0.00    +0.014 A 
ATOM     13  C   UNL     1       5.719   1.605  -0.106  0.00  0.00    +0.009 A 
ATOM     14  C   UNL     1       5.096   0.381   0.194  0.00  0.00    -0.015 A 
ATOM     15  C   UNL     1       5.903  -0.692   0.633  0.00  0.00    -0.042 A 
ATOM     16  C   UNL     1       5.321  -2.038   0.985  0.00  0.00    +0.044 C 
ATOM     17  C   UNL     1       7.298  -0.517   0.737  0.00  0.00    +0.017 A 
BRANCH  11  22
ATOM     18  C   UNL     1      12.500  -0.577   1.097  0.00  0.00    +0.111 C 
ATOM     19  C   UNL     1      11.376   0.343   0.867  0.00  0.00    +0.215 A 
ATOM     20  N   UNL     1      11.376   1.652   0.724  0.00  0.00    -0.112 NA
ATOM     21  N   UNL     1      10.059   2.018   0.528  0.00  0.00    -0.107 NA
ATOM     22  C   UNL     1       9.347   0.908   0.578  0.00  0.00    +0.248 A 
ATOM     23  O   UNL     1      10.124  -0.205   0.789  0.00  0.00    -0.421 OA
ENDBRANCH  11  22
ENDBRANCH   5  14
ENDBRANCH   1   8
BRANCH   3  24
ATOM     24  C   UNL     1      -2.687   1.442  -0.474  0.00  0.00    +0.036 A 
ATOM     25  C   UNL     1      -3.101   2.773  -0.550  0.00  0.00    +0.027 A 
ATOM     26  C   UNL     1      -4.450   3.080  -0.696  0.00  0.00    +0.052 A 
ATOM     27  C   UNL     1      -5.388   2.050  -0.768  0.00  0.00    +0.177 A 
ATOM     28  C   UNL     1      -5.024   0.694  -0.628  0.00  0.00    +0.077 A 
ATOM     29  C   UNL     1      -3.650   0.423  -0.511  0.00  0.00    +0.050 A 
BRANCH  28  30
ATOM     30  N   UNL     1      -6.004  -0.308  -0.648  0.00  0.00    -0.325 N 
ATOM     31  C   UNL     1      -5.649  -1.699  -1.018  0.00  0.00    +0.120 C 
ATOM     32  C   UNL     1      -5.293  -2.580   0.204  0.00  0.00    +0.103 C 
ATOM     33  N   UNL     1      -6.327  -2.538   1.262  0.00  0.00    -0.302 NA
ATOM     34  C   UNL     1      -5.919  -3.341   2.412  0.00  0.00    +0.105 C 
ATOM     35  C   UNL     1      -6.552  -1.132   1.659  0.00  0.00    +0.103 C 
ATOM     36  C   UNL     1      -6.991  -0.256   0.463  0.00  0.00    +0.120 C 
ENDBRANCH  28  30
BRANCH  27  37
ATOM     37  O   UNL     1      -6.708   2.380  -0.969  0.00  0.00    -0.344 OA
BRANCH  37  38
ATOM     38  S   UNL     1      -7.218   2.756  -2.478  0.00  0.00    +0.118 S 
ATOM     39  C   UNL     1      -7.330   1.123  -3.177  0.00  0.00    +0.242 C 
ATOM     40  O   UNL     1      -8.568   3.281  -2.371  0.00  0.00    -0.137 OA
ATOM     41  O   UNL     1      -6.197   3.499  -3.190  0.00  0.00    -0.137 OA
ENDBRANCH  37  38
ENDBRANCH  27  37
ENDBRANCH   3  24
TORSDOF 7
