REMARK  Name = 
REMARK  5 active torsions:
REMARK  status: ('A' for Active; 'I' for Inactive)
REMARK    1  A    between atoms: C_1  and  C_2
REMARK    2  A    between atoms: C_4  and  C_5
REMARK    3  A    between atoms: C_7  and  N_8
REMARK    4  A    between atoms: C_9  and  C_11
REMARK    5  A    between atoms: C_15  and  C_16
REMARK                            x       y       z     vdW  Elec       q    Type
REMARK                         _______ _______ _______ _____ _____    ______ ____
ROOT
ATOM      1  C   UNL     1       0.899  -2.282  -0.153  0.00  0.00    +0.144 A 
ATOM      2  C   UNL     1       1.406  -3.570  -0.173  0.00  0.00    +0.143 A 
ATOM      3  N   UNL     1       2.737  -3.814  -0.239  0.00  0.00    -0.259 NA
ATOM      4  C   UNL     1       3.528  -2.711  -0.282  0.00  0.00    +0.139 A 
ATOM      5  C   UNL     1       3.035  -1.403  -0.258  0.00  0.00    +0.090 A 
ATOM      6  N   UNL     1       1.696  -1.172  -0.198  0.00  0.00    -0.239 NA
ENDROOT
BRANCH   5   7
ATOM      7  C   UNL     1       3.898  -0.209  -0.304  0.00  0.00    +0.002 A 
ATOM      8  C   UNL     1       5.158  -0.175   0.322  0.00  0.00    +0.011 A 
ATOM      9  C   UNL     1       5.965   0.969   0.269  0.00  0.00    +0.020 A 
ATOM     10  C   UNL     1       5.522   2.099  -0.410  0.00  0.00    +0.041 A 
ATOM     11 CL   UNL     1       6.513   3.503  -0.476  0.00  0.00    -0.084 Cl
ATOM     12  C   UNL     1       4.279   2.098  -1.034  0.00  0.00    +0.020 A 
ATOM     13  C   UNL     1       3.476   0.954  -0.977  0.00  0.00    +0.011 A 
ENDBRANCH   5   7
BRANCH   1  15
ATOM     14  N   UNL     1      -0.903  -0.711  -0.021  0.00  0.00    -0.280 N 
ATOM     15  C   UNL     1      -0.573  -2.052  -0.076  0.00  0.00    +0.268 C 
ATOM     16  O   UNL     1      -1.334  -3.010  -0.065  0.00  0.00    -0.268 OA
ATOM     17  H   UNL     1      -0.103  -0.082  -0.032  0.00  0.00    +0.155 HD
BRANCH  14  24
ATOM     18  C   UNL     1      -5.879  -1.011   0.185  0.00  0.00    +0.044 C 
ATOM     19  C   UNL     1      -4.611  -0.209   0.137  0.00  0.00    -0.048 A 
ATOM     20  C   UNL     1      -4.653   1.188   0.207  0.00  0.00    +0.006 A 
ATOM     21  C   UNL     1      -3.471   1.937   0.202  0.00  0.00    -0.048 A 
ATOM     22  C   UNL     1      -3.523   3.436   0.235  0.00  0.00    +0.044 C 
ATOM     23  C   UNL     1      -2.242   1.270   0.110  0.00  0.00    +0.026 A 
ATOM     24  C   UNL     1      -2.181  -0.128   0.055  0.00  0.00    +0.034 A 
ATOM     25  C   UNL     1      -3.369  -0.860   0.077  0.00  0.00    +0.026 A 
ENDBRANCH  14  24
ENDBRANCH   1  15
TORSDOF 3
