REMARK  Name = 
REMARK  8 active torsions:
REMARK  status: ('A' for Active; 'I' for Inactive)
REMARK    1  A    between atoms: N_2  and  C_4
REMARK    2  A    between atoms: C_5  and  O_6
REMARK    3  A    between atoms: O_6  and  C_7
REMARK    4  A    between atoms: C_7  and  C_8
REMARK    5  A    between atoms: C_8  and  C_9
REMARK    6  A    between atoms: C_9  and  C_10
REMARK    7  A    between atoms: C_21  and  O_22
REMARK    8  A    between atoms: C_23  and  O_24
REMARK                            x       y       z     vdW  Elec       q    Type
REMARK                         _______ _______ _______ _____ _____    ______ ____
ROOT
ATOM      1  C   UNL     1       1.754   0.701   0.484  0.00  0.00    +0.198 A 
ATOM      2  C   UNL     1       0.985  -0.314   1.069  0.00  0.00    +0.188 A 
ATOM      3  C   UNL     1       1.445  -1.613   0.904  0.00  0.00    +0.169 A 
ATOM      4  F   UNL     1       0.806  -2.657   1.450  0.00  0.00    -0.202 F 
ATOM      5  C   UNL     1       2.603  -1.878   0.178  0.00  0.00    +0.072 A 
ATOM      6  C   UNL     1       3.341  -0.859  -0.402  0.00  0.00    +0.098 A 
ATOM      7  N   UNL     1       4.447  -1.193  -1.090  0.00  0.00    -0.207 NA
ATOM      8  C   UNL     1       5.138  -0.179  -1.636  0.00  0.00    +0.277 A 
ATOM      9  C   UNL     1       4.734   1.135  -1.497  0.00  0.00    +0.277 A 
ATOM     10  N   UNL     1       3.637   1.500  -0.819  0.00  0.00    -0.205 NA
ATOM     11  C   UNL     1       2.920   0.490  -0.255  0.00  0.00    +0.127 A 
ENDROOT
BRANCH   1  13
ATOM     12  O   UNL     1       1.766   2.697   1.595  0.00  0.00    -0.126 OA
ATOM     13  N   UNL     1       1.316   2.061   0.632  0.00  0.00    +0.062 N 
ATOM     14  O   UNL     1       0.518   2.488  -0.215  0.00  0.00    -0.126 OA
ENDBRANCH   1  13
BRANCH   8  15
ATOM     15  O   UNL     1       6.261  -0.514  -2.335  0.00  0.00    -0.489 OA
ATOM     16  H   UNL     1       6.628   0.332  -2.651  0.00  0.00    +0.294 HD
ENDBRANCH   8  15
BRANCH   9  17
ATOM     17  O   UNL     1       5.436   2.157  -2.051  0.00  0.00    -0.489 OA
ATOM     18  H   UNL     1       4.899   2.922  -1.770  0.00  0.00    +0.294 HD
ENDBRANCH   9  17
BRANCH   2  19
ATOM     19  O   UNL     1      -0.127   0.064   1.766  0.00  0.00    -0.487 OA
BRANCH  19  20
ATOM     20  C   UNL     1      -1.101  -0.940   2.059  0.00  0.00    +0.229 C 
BRANCH  20  21
ATOM     21  C   UNL     1      -2.381  -0.260   2.549  0.00  0.00    +0.046 C 
BRANCH  21  22
ATOM     22  C   UNL     1      -2.975   0.742   1.552  0.00  0.00    +0.038 C 
BRANCH  22  23
ATOM     23  C   UNL     1      -3.363   0.128   0.229  0.00  0.00    -0.047 A 
ATOM     24  C   UNL     1      -4.404  -0.808   0.151  0.00  0.00    +0.003 A 
ATOM     25  C   UNL     1      -4.750  -1.381  -1.073  0.00  0.00    +0.000 A 
ATOM     26  C   UNL     1      -4.062  -1.023  -2.231  0.00  0.00    +0.000 A 
ATOM     27  C   UNL     1      -3.032  -0.088  -2.167  0.00  0.00    +0.000 A 
ATOM     28  C   UNL     1      -2.684   0.486  -0.943  0.00  0.00    +0.003 A 
ENDBRANCH  22  23
ENDBRANCH  21  22
ENDBRANCH  20  21
ENDBRANCH  19  20
ENDBRANCH   2  19
TORSDOF 8
