REMARK  Name = 
REMARK  6 active torsions:
REMARK  status: ('A' for Active; 'I' for Inactive)
REMARK    1  A    between atoms: C_2  and  C_4
REMARK    2  A    between atoms: C_6  and  C_7
REMARK    3  A    between atoms: N_10  and  C_11
REMARK    4  A    between atoms: C_15  and  C_16
REMARK    5  A    between atoms: C_20  and  O_21
REMARK    6  A    between atoms: O_21  and  C_22
REMARK                            x       y       z     vdW  Elec       q    Type
REMARK                         _______ _______ _______ _____ _____    ______ ____
ROOT
ATOM      1  C   UNL     1      -1.159   0.765  -0.303  0.00  0.00    +0.067 A 
ATOM      2  C   UNL     1      -1.055   1.710  -1.326  0.00  0.00    +0.028 A 
ATOM      3  C   UNL     1       0.200   2.079  -1.816  0.00  0.00    +0.003 A 
ATOM      4  C   UNL     1       1.359   1.500  -1.300  0.00  0.00    +0.009 A 
ATOM      5  C   UNL     1       1.295   0.530  -0.289  0.00  0.00    -0.013 A 
ATOM      6  C   UNL     1       0.021   0.171   0.192  0.00  0.00    +0.036 A 
ENDROOT
BRANCH   5   7
ATOM      7  C   UNL     1       2.518  -0.088   0.258  0.00  0.00    +0.021 A 
ATOM      8  C   UNL     1       2.711  -0.200   1.648  0.00  0.00    +0.011 A 
ATOM      9  C   UNL     1       3.860  -0.797   2.181  0.00  0.00    +0.004 A 
ATOM     10  C   UNL     1       4.851  -1.287   1.334  0.00  0.00    +0.049 A 
ATOM     11  C   UNL     1       4.694  -1.160  -0.043  0.00  0.00    +0.166 A 
ATOM     12  C   UNL     1       3.533  -0.590  -0.573  0.00  0.00    +0.173 A 
ATOM     13  F   UNL     1       3.394  -0.543  -1.909  0.00  0.00    -0.201 F 
BRANCH  11  14
ATOM     14  O   UNL     1       5.657  -1.679  -0.866  0.00  0.00    -0.403 OA
BRANCH  14  15
ATOM     15  C   UNL     1       6.529  -0.655  -1.331  0.00  0.00    +0.575 C 
ATOM     16  F   UNL     1       7.463  -1.214  -2.132  0.00  0.00    -0.133 F 
ATOM     17  F   UNL     1       7.168  -0.064  -0.296  0.00  0.00    -0.133 F 
ATOM     18  F   UNL     1       5.873   0.286  -2.042  0.00  0.00    -0.133 F 
ENDBRANCH  14  15
ENDBRANCH  11  14
ENDBRANCH   5   7
BRANCH   1  22
ATOM     19  C   UNL     1      -3.741  -1.126   1.121  0.00  0.00    +0.148 A 
ATOM     20  C   UNL     1      -4.555  -0.099   0.591  0.00  0.00    +0.067 A 
ATOM     21  C   UNL     1      -3.695   0.869   0.092  0.00  0.00    +0.130 A 
ATOM     22  N   UNL     1      -2.418   0.335   0.225  0.00  0.00    -0.227 N 
ATOM     23  N   UNL     1      -2.451  -0.827   0.933  0.00  0.00    -0.161 NA
BRANCH  19  25
ATOM     24  N   UNL     1      -5.486  -2.660   1.784  0.00  0.00    -0.324 N 
ATOM     25  C   UNL     1      -4.149  -2.354   1.825  0.00  0.00    +0.262 C 
ATOM     26  O   UNL     1      -3.382  -3.109   2.416  0.00  0.00    -0.269 OA
ATOM     27  H   UNL     1      -5.735  -3.562   2.169  0.00  0.00    +0.145 HD
ATOM     28  H   UNL     1      -6.125  -2.226   1.138  0.00  0.00    +0.145 HD
ENDBRANCH  19  25
BRANCH  21  29
ATOM     29  C   UNL     1      -4.045   2.183  -0.369  0.00  0.00    +0.260 C 
ATOM     30  N   UNL     1      -5.232   2.265  -1.039  0.00  0.00    -0.324 N 
ATOM     31  O   UNL     1      -3.382   3.198  -0.194  0.00  0.00    -0.269 OA
ATOM     32  H   UNL     1      -5.462   3.165  -1.441  0.00  0.00    +0.145 HD
ATOM     33  H   UNL     1      -5.725   1.451  -1.372  0.00  0.00    +0.145 HD
ENDBRANCH  21  29
ENDBRANCH   1  22
TORSDOF 6
