REMARK  Name = 
REMARK  5 active torsions:
REMARK  status: ('A' for Active; 'I' for Inactive)
REMARK    1  A    between atoms: C_1  and  C_2
REMARK    2  A    between atoms: C_4  and  C_5
REMARK    3  A    between atoms: C_7  and  N_8
REMARK    4  A    between atoms: C_9  and  C_11
REMARK    5  A    between atoms: C_15  and  C_16
REMARK                            x       y       z     vdW  Elec       q    Type
REMARK                         _______ _______ _______ _____ _____    ______ ____
ROOT
ATOM      1  C   UNL     1       0.909  -2.252   0.269  0.00  0.00    +0.144 A 
ATOM      2  C   UNL     1       1.421  -3.522   0.478  0.00  0.00    +0.143 A 
ATOM      3  N   UNL     1       2.754  -3.763   0.488  0.00  0.00    -0.259 NA
ATOM      4  C   UNL     1       3.542  -2.676   0.281  0.00  0.00    +0.139 A 
ATOM      5  C   UNL     1       3.044  -1.387   0.074  0.00  0.00    +0.090 A 
ATOM      6  N   UNL     1       1.702  -1.159   0.060  0.00  0.00    -0.239 NA
ENDROOT
BRANCH   5   7
ATOM      7  C   UNL     1       3.903  -0.209  -0.147  0.00  0.00    +0.002 A 
ATOM      8  C   UNL     1       5.149  -0.064   0.493  0.00  0.00    +0.011 A 
ATOM      9  C   UNL     1       5.952   1.062   0.272  0.00  0.00    +0.020 A 
ATOM     10  C   UNL     1       5.521   2.063  -0.593  0.00  0.00    +0.041 A 
ATOM     11 CL   UNL     1       6.507   3.446  -0.863  0.00  0.00    -0.084 Cl
ATOM     12  C   UNL     1       4.293   1.951  -1.236  0.00  0.00    +0.020 A 
ATOM     13  C   UNL     1       3.493   0.825  -1.011  0.00  0.00    +0.011 A 
ENDBRANCH   5   7
BRANCH   1  15
ATOM     14  N   UNL     1      -0.902  -0.697   0.086  0.00  0.00    -0.280 N 
ATOM     15  C   UNL     1      -0.565  -2.025   0.268  0.00  0.00    +0.268 C 
ATOM     16  O   UNL     1      -1.323  -2.974   0.420  0.00  0.00    -0.268 OA
ATOM     17  H   UNL     1      -0.104  -0.072  -0.010  0.00  0.00    +0.155 HD
BRANCH  14  24
ATOM     18  C   UNL     1      -5.878  -1.011   0.155  0.00  0.00    +0.044 C 
ATOM     19  C   UNL     1      -4.614  -0.205   0.070  0.00  0.00    -0.048 A 
ATOM     20  C   UNL     1      -4.664   1.179  -0.133  0.00  0.00    +0.006 A 
ATOM     21  C   UNL     1      -3.486   1.926  -0.231  0.00  0.00    -0.048 A 
ATOM     22  C   UNL     1      -3.543   3.406  -0.473  0.00  0.00    +0.044 C 
ATOM     23  C   UNL     1      -2.251   1.266  -0.160  0.00  0.00    +0.026 A 
ATOM     24  C   UNL     1      -2.183  -0.120   0.028  0.00  0.00    +0.034 A 
ATOM     25  C   UNL     1      -3.369  -0.848   0.140  0.00  0.00    +0.026 A 
ENDBRANCH  14  24
ENDBRANCH   1  15
TORSDOF 3
