REMARK  Name = 
REMARK  9 active torsions:
REMARK  status: ('A' for Active; 'I' for Inactive)
REMARK    1  A    between atoms: C_1  and  C_2
REMARK    2  A    between atoms: C_5  and  C_6
REMARK    3  A    between atoms: C_9  and  C_10
REMARK    4  A    between atoms: C_13  and  C_14
REMARK    5  A    between atoms: N_16  and  C_17
REMARK    6  A    between atoms: C_20  and  O_21
REMARK    7  A    between atoms: C_22  and  N_23
REMARK    8  A    between atoms: N_26  and  C_27
REMARK    9  A    between atoms: C_33  and  C_34
REMARK                            x       y       z     vdW  Elec       q    Type
REMARK                         _______ _______ _______ _____ _____    ______ ____
ROOT
ATOM      1  C   UNL     1      -3.512   1.128   0.394  0.00  0.00    -0.018 A 
ATOM      2  C   UNL     1      -2.495   1.025  -0.567  0.00  0.00    +0.009 A 
ATOM      3  C   UNL     1      -1.163   1.295  -0.233  0.00  0.00    +0.013 A 
ATOM      4  C   UNL     1      -0.832   1.665   1.076  0.00  0.00    +0.037 A 
ATOM      5  C   UNL     1      -1.844   1.799   2.033  0.00  0.00    +0.013 A 
ATOM      6  C   UNL     1      -3.172   1.528   1.695  0.00  0.00    +0.009 A 
ENDROOT
BRANCH   1  10
ATOM      7  C   UNL     1      -7.622   0.350  -0.640  0.00  0.00    +0.039 A 
ATOM      8  C   UNL     1      -7.029   1.593  -0.890  0.00  0.00    +0.014 A 
ATOM      9  C   UNL     1      -5.692   1.829  -0.553  0.00  0.00    +0.009 A 
ATOM     10  C   UNL     1      -4.907   0.830   0.045  0.00  0.00    -0.015 A 
ATOM     11  C   UNL     1      -5.492  -0.430   0.297  0.00  0.00    -0.042 A 
ATOM     12  C   UNL     1      -4.710  -1.545   0.942  0.00  0.00    +0.044 C 
ATOM     13  C   UNL     1      -6.840  -0.652  -0.046  0.00  0.00    +0.017 A 
BRANCH   7  18
ATOM     14  C   UNL     1     -11.695  -2.156  -1.155  0.00  0.00    +0.111 C 
ATOM     15  C   UNL     1     -10.822  -0.974  -1.218  0.00  0.00    +0.215 A 
ATOM     16  N   UNL     1     -11.083   0.244  -1.637  0.00  0.00    -0.112 NA
ATOM     17  N   UNL     1      -9.913   0.962  -1.489  0.00  0.00    -0.107 NA
ATOM     18  C   UNL     1      -9.019   0.130  -0.991  0.00  0.00    +0.248 A 
ATOM     19  O   UNL     1      -9.531  -1.128  -0.792  0.00  0.00    -0.421 OA
ENDBRANCH   7  18
ENDBRANCH   1  10
BRANCH   4  20
ATOM     20  C   UNL     1       0.573   1.950   1.488  0.00  0.00    +0.248 C 
ATOM     21  O   UNL     1       0.763   2.812   2.337  0.00  0.00    -0.270 OA
ATOM     22  N   UNL     1       1.531   1.161   0.876  0.00  0.00    -0.281 N 
ATOM     23  H   UNL     1       1.202   0.418   0.273  0.00  0.00    +0.155 HD
BRANCH  22  24
ATOM     24  C   UNL     1       2.928   1.199   1.072  0.00  0.00    +0.036 A 
ATOM     25  C   UNL     1       3.575   2.114   1.903  0.00  0.00    +0.027 A 
ATOM     26  C   UNL     1       4.964   2.072   2.056  0.00  0.00    +0.049 A 
ATOM     27  C   UNL     1       5.714   1.116   1.371  0.00  0.00    +0.138 A 
ATOM     28  C   UNL     1       5.093   0.187   0.519  0.00  0.00    +0.074 A 
ATOM     29  C   UNL     1       3.696   0.250   0.384  0.00  0.00    +0.050 A 
BRANCH  28  30
ATOM     30  N   UNL     1       5.765  -0.808  -0.218  0.00  0.00    -0.325 N 
ATOM     31  C   UNL     1       6.542  -0.249  -1.343  0.00  0.00    +0.120 C 
ATOM     32  C   UNL     1       7.357  -1.367  -2.035  0.00  0.00    +0.103 C 
ATOM     33  N   UNL     1       8.305  -2.094  -1.160  0.00  0.00    -0.302 NA
ATOM     34  C   UNL     1       9.693  -1.763  -1.470  0.00  0.00    +0.105 C 
ATOM     35  C   UNL     1       8.018  -1.838   0.270  0.00  0.00    +0.103 C 
ATOM     36  C   UNL     1       6.510  -1.786   0.611  0.00  0.00    +0.120 C 
ENDBRANCH  28  30
BRANCH  27  37
ATOM     37  O   UNL     1       7.074   1.087   1.536  0.00  0.00    -0.505 OA
ATOM     38  H   UNL     1       7.320   1.775   2.175  0.00  0.00    +0.292 HD
ENDBRANCH  27  37
ENDBRANCH  22  24
ENDBRANCH   4  20
TORSDOF 6
