REMARK  Name = 
REMARK  9 active torsions:
REMARK  status: ('A' for Active; 'I' for Inactive)
REMARK    1  A    between atoms: C_1  and  S_2
REMARK    2  A    between atoms: S_2  and  N_5
REMARK    3  A    between atoms: C_6  and  C_8
REMARK    4  A    between atoms: C_10  and  C_11
REMARK    5  A    between atoms: C_14  and  O_15
REMARK    6  A    between atoms: O_15  and  C_16
REMARK    7  A    between atoms: C_16  and  C_17
REMARK    8  A    between atoms: N_19  and  C_20
REMARK    9  A    between atoms: C_20  and  C_21
REMARK                            x       y       z     vdW  Elec       q    Type
REMARK                         _______ _______ _______ _____ _____    ______ ____
ROOT
ATOM      1  C   UNL     1      -4.360   0.312  -0.077  0.00  0.00    +0.074 A 
ATOM      2  C   UNL     1      -3.683   1.440   0.410  0.00  0.00    +0.023 A 
ATOM      3  C   UNL     1      -2.275   1.523   0.411  0.00  0.00    -0.002 A 
ATOM      4  C   UNL     1      -1.548   0.434  -0.123  0.00  0.00    +0.127 A 
ATOM      5  C   UNL     1      -2.215  -0.694  -0.607  0.00  0.00    +0.085 A 
ATOM      6  C   UNL     1      -3.607  -0.746  -0.578  0.00  0.00    +0.139 A 
ATOM      7  F   UNL     1      -4.200  -1.853  -1.050  0.00  0.00    -0.205 F 
ENDROOT
BRANCH   1   9
ATOM      8  N   UNL     1      -6.486  -0.799  -0.606  0.00  0.00    -0.186 N 
ATOM      9  C   UNL     1      -5.846   0.311  -0.046  0.00  0.00    +0.266 C 
ATOM     10  O   UNL     1      -6.458   1.228   0.480  0.00  0.00    -0.269 OA
ATOM     11  H   UNL     1      -5.962  -1.590  -0.976  0.00  0.00    +0.176 HD
BRANCH   8  13
ATOM     12  C   UNL     1      -8.797  -0.930   0.780  0.00  0.00    +0.218 C 
ATOM     13  S   UNL     1      -8.118  -0.928  -0.867  0.00  0.00    +0.043 S 
ATOM     14  O   UNL     1      -8.575   0.239  -1.586  0.00  0.00    -0.155 OA
ATOM     15  O   UNL     1      -8.303  -2.255  -1.419  0.00  0.00    -0.155 OA
ENDBRANCH   8  13
ENDBRANCH   1   9
BRANCH   3  16
ATOM     16  C   UNL     1      -1.585   2.768   0.934  0.00  0.00    +0.023 C 
ATOM     17  C   UNL     1      -1.985   3.372   2.262  0.00  0.00    +0.009 C 
ATOM     18  C   UNL     1      -0.667   2.673   2.132  0.00  0.00    +0.009 C 
ENDBRANCH   3  16
BRANCH   4  19
ATOM     19  O   UNL     1      -0.186   0.592  -0.135  0.00  0.00    -0.491 OA
BRANCH  19  20
ATOM     20  C   UNL     1       0.619  -0.502  -0.573  0.00  0.00    +0.235 C 
BRANCH  20  21
ATOM     21  C   UNL     1       2.071  -0.081  -0.434  0.00  0.00    +0.055 C 
ATOM     22  C   UNL     1       3.124  -1.188  -0.631  0.00  0.00    +0.092 C 
ATOM     23  N   UNL     1       3.825  -0.729   0.589  0.00  0.00    -0.297 NA
ATOM     24  C   UNL     1       2.622   0.026   1.001  0.00  0.00    +0.092 C 
BRANCH  23  25
ATOM     25  C   UNL     1       4.924   0.196   0.261  0.00  0.00    +0.119 C 
BRANCH  25  26
ATOM     26  C   UNL     1       6.159  -0.524  -0.241  0.00  0.00    -0.033 A 
ATOM     27  C   UNL     1       6.714  -0.205  -1.490  0.00  0.00    +0.005 A 
ATOM     28  C   UNL     1       7.863  -0.857  -1.942  0.00  0.00    +0.000 A 
ATOM     29  C   UNL     1       8.471  -1.831  -1.153  0.00  0.00    +0.000 A 
ATOM     30  C   UNL     1       7.931  -2.155   0.091  0.00  0.00    +0.000 A 
ATOM     31  C   UNL     1       6.783  -1.504   0.545  0.00  0.00    +0.005 A 
ENDBRANCH  25  26
ENDBRANCH  23  25
ENDBRANCH  20  21
ENDBRANCH  19  20
ENDBRANCH   4  19
TORSDOF 8
