REMARK  Name = 
REMARK  2 active torsions:
REMARK  status: ('A' for Active; 'I' for Inactive)
REMARK    1  A    between atoms: C_1  and  N_2
REMARK    2  A    between atoms: C_16  and  N_17
REMARK                            x       y       z     vdW  Elec       q    Type
REMARK                         _______ _______ _______ _____ _____    ______ ____
ROOT
ATOM      1  C   UNL     1      -2.852  -2.200  -1.335  0.00  0.00    +0.105 C 
ATOM      2  N   UNL     1      -2.069  -0.968  -1.309  0.00  0.00    -0.302 NA
ATOM      3  C   UNL     1      -0.785  -1.144  -2.001  0.00  0.00    +0.085 C 
ATOM      4  C   UNL     1       0.081   0.130  -1.995  0.00  0.00    +0.027 C 
ATOM      5  C   UNL     1       0.205   0.740  -0.576  0.00  0.00    +0.001 C 
ATOM      6  C   UNL     1       0.984   2.093  -0.602  0.00  0.00    +0.012 C 
ATOM      7  C   UNL     1       0.088   3.325  -0.481  0.00  0.00    +0.001 C 
ATOM      8  C   UNL     1      -0.753   3.287   0.798  0.00  0.00    +0.000 C 
ATOM      9  C   UNL     1      -1.300   1.894   1.130  0.00  0.00    +0.006 C 
ATOM     10  C   UNL     1      -1.257   0.985  -0.104  0.00  0.00    +0.017 C 
ATOM     11  C   UNL     1      -1.966  -0.367   0.046  0.00  0.00    +0.065 C 
ATOM     12  C   UNL     1      -1.285  -1.209   1.145  0.00  0.00    +0.054 C 
ATOM     13  C   UNL     1       0.223  -1.209   1.096  0.00  0.00    -0.042 A 
ATOM     14  C   UNL     1       0.917  -2.130   1.895  0.00  0.00    +0.006 A 
ATOM     15  C   UNL     1       2.311  -2.193   1.864  0.00  0.00    +0.023 A 
ATOM     16  C   UNL     1       3.035  -1.378   0.999  0.00  0.00    +0.025 A 
ATOM     17  C   UNL     1       2.348  -0.411   0.258  0.00  0.00    +0.027 A 
ATOM     18  C   UNL     1       0.941  -0.299   0.298  0.00  0.00    -0.036 A 
ENDROOT
BRANCH  16  19
ATOM     19  N   UNL     1       4.435  -1.376   1.036  0.00  0.00    -0.358 N 
ATOM     20  H   UNL     1       4.836  -2.264   1.321  0.00  0.00    +0.142 HD
ATOM     21  H   UNL     1       4.865  -1.011   0.193  0.00  0.00    +0.142 HD
ENDBRANCH  16  19
TORSDOF 1
