MODEL 1
REMARK VINA RESULT:    -5.601      0.000      0.000
REMARK INTER + INTRA:          -9.747
REMARK INTER:                  -7.893
REMARK INTRA:                  -1.854
REMARK UNBOUND:                -1.854
REMARK  Name = 
REMARK  8 active torsions:
REMARK  status: ('A' for Active; 'I' for Inactive)
REMARK    1  A    between atoms: N_2  and  C_4
REMARK    2  A    between atoms: C_5  and  O_6
REMARK    3  A    between atoms: O_6  and  C_7
REMARK    4  A    between atoms: C_7  and  C_8
REMARK    5  A    between atoms: C_8  and  C_9
REMARK    6  A    between atoms: C_9  and  C_10
REMARK    7  A    between atoms: C_21  and  O_22
REMARK    8  A    between atoms: C_23  and  O_24
REMARK                            x       y       z     vdW  Elec       q    Type
REMARK                         _______ _______ _______ _____ _____    ______ ____
ROOT
ATOM      1  C   UNL     1      46.476  -1.743 -60.294  0.00  0.00    +0.198 A 
ATOM      2  C   UNL     1      46.484  -2.913 -61.065  0.00  0.00    +0.188 A 
ATOM      3  C   UNL     1      47.499  -3.029 -62.005  0.00  0.00    +0.169 A 
ATOM      4  F   UNL     1      47.622  -4.121 -62.773  0.00  0.00    -0.202 F 
ATOM      5  C   UNL     1      48.443  -2.019 -62.171  0.00  0.00    +0.072 A 
ATOM      6  C   UNL     1      48.408  -0.865 -61.406  0.00  0.00    +0.098 A 
ATOM      7  N   UNL     1      49.351   0.068 -61.625  0.00  0.00    -0.207 NA
ATOM      8  C   UNL     1      49.287   1.171 -60.863  0.00  0.00    +0.277 A 
ATOM      9  C   UNL     1      48.306   1.338 -59.905  0.00  0.00    +0.277 A 
ATOM     10  N   UNL     1      47.351   0.429 -59.663  0.00  0.00    -0.205 NA
ATOM     11  C   UNL     1      47.396  -0.700 -60.422  0.00  0.00    +0.127 A 
ENDROOT
BRANCH   1  13
ATOM     12  O   UNL     1      45.690  -1.990 -58.164  0.00  0.00    -0.126 OA
ATOM     13  N   UNL     1      45.445  -1.583 -59.308  0.00  0.00    +0.062 N 
ATOM     14  O   UNL     1      44.389  -1.053 -59.682  0.00  0.00    -0.126 OA
ENDBRANCH   1  13
BRANCH   8  15
ATOM     15  O   UNL     1      50.243   2.120 -61.083  0.00  0.00    -0.489 OA
ATOM     16  H   UNL     1      50.045   2.484 -61.965  0.00  0.00    +0.294 HD
ENDBRANCH   8  15
BRANCH   9  17
ATOM     17  O   UNL     1      48.245   2.456 -59.136  0.00  0.00    -0.489 OA
ATOM     18  H   UNL     1      48.428   2.082 -58.253  0.00  0.00    +0.294 HD
ENDBRANCH   9  17
BRANCH   2  19
ATOM     19  O   UNL     1      45.515  -3.841 -60.809  0.00  0.00    -0.487 OA
BRANCH  19  20
ATOM     20  C   UNL     1      45.934  -5.165 -60.474  0.00  0.00    +0.229 C 
BRANCH  20  21
ATOM     21  C   UNL     1      46.554  -5.150 -59.075  0.00  0.00    +0.046 C 
BRANCH  21  22
ATOM     22  C   UNL     1      47.855  -5.953 -58.961  0.00  0.00    +0.038 C 
BRANCH  22  23
ATOM     23  C   UNL     1      49.044  -5.281 -59.603  0.00  0.00    -0.047 A 
ATOM     24  C   UNL     1      49.671  -5.848 -60.721  0.00  0.00    +0.003 A 
ATOM     25  C   UNL     1      50.777  -5.228 -61.303  0.00  0.00    +0.000 A 
ATOM     26  C   UNL     1      51.266  -4.034 -60.775  0.00  0.00    +0.000 A 
ATOM     27  C   UNL     1      50.646  -3.457 -59.669  0.00  0.00    +0.000 A 
ATOM     28  C   UNL     1      49.540  -4.077 -59.086  0.00  0.00    +0.003 A 
ENDBRANCH  22  23
ENDBRANCH  21  22
ENDBRANCH  20  21
ENDBRANCH  19  20
ENDBRANCH   2  19
TORSDOF 8
ENDMDL
MODEL 2
REMARK VINA RESULT:    -5.371      3.309      4.921
REMARK INTER + INTRA:          -9.423
REMARK INTER:                  -8.283
REMARK INTRA:                  -1.141
REMARK UNBOUND:                -1.854
REMARK  Name = 
REMARK  8 active torsions:
REMARK  status: ('A' for Active; 'I' for Inactive)
REMARK    1  A    between atoms: N_2  and  C_4
REMARK    2  A    between atoms: C_5  and  O_6
REMARK    3  A    between atoms: O_6  and  C_7
REMARK    4  A    between atoms: C_7  and  C_8
REMARK    5  A    between atoms: C_8  and  C_9
REMARK    6  A    between atoms: C_9  and  C_10
REMARK    7  A    between atoms: C_21  and  O_22
REMARK    8  A    between atoms: C_23  and  O_24
REMARK                            x       y       z     vdW  Elec       q    Type
REMARK                         _______ _______ _______ _____ _____    ______ ____
ROOT
ATOM      1  C   UNL     1      46.010  -2.109 -58.546  0.00  0.00    +0.198 A 
ATOM      2  C   UNL     1      46.293  -3.467 -58.748  0.00  0.00    +0.188 A 
ATOM      3  C   UNL     1      47.503  -3.763 -59.359  0.00  0.00    +0.169 A 
ATOM      4  F   UNL     1      47.890  -5.029 -59.570  0.00  0.00    -0.202 F 
ATOM      5  C   UNL     1      48.373  -2.752 -59.759  0.00  0.00    +0.072 A 
ATOM      6  C   UNL     1      48.066  -1.415 -59.559  0.00  0.00    +0.098 A 
ATOM      7  N   UNL     1      48.955  -0.495 -59.975  0.00  0.00    -0.207 NA
ATOM      8  C   UNL     1      48.625   0.789 -59.762  0.00  0.00    +0.277 A 
ATOM      9  C   UNL     1      47.439   1.145 -59.150  0.00  0.00    +0.277 A 
ATOM     10  N   UNL     1      46.533   0.252 -58.726  0.00  0.00    -0.205 NA
ATOM     11  C   UNL     1      46.845  -1.057 -58.929  0.00  0.00    +0.127 A 
ENDROOT
BRANCH   1  13
ATOM     12  O   UNL     1      44.770  -1.669 -56.679  0.00  0.00    -0.126 OA
ATOM     13  N   UNL     1      44.769  -1.757 -57.914  0.00  0.00    +0.062 N 
ATOM     14  O   UNL     1      43.794  -1.573 -58.658  0.00  0.00    -0.126 OA
ENDBRANCH   1  13
BRANCH   8  15
ATOM     15  O   UNL     1      49.524   1.726 -60.182  0.00  0.00    -0.489 OA
ATOM     16  H   UNL     1      48.989   2.503 -60.428  0.00  0.00    +0.294 HD
ENDBRANCH   8  15
BRANCH   9  17
ATOM     17  O   UNL     1      47.110   2.445 -58.938  0.00  0.00    -0.489 OA
ATOM     18  H   UNL     1      46.164   2.437 -59.178  0.00  0.00    +0.294 HD
ENDBRANCH   9  17
BRANCH   2  19
ATOM     19  O   UNL     1      45.371  -4.372 -58.307  0.00  0.00    -0.487 OA
BRANCH  19  20
ATOM     20  C   UNL     1      44.643  -5.113 -59.289  0.00  0.00    +0.229 C 
BRANCH  20  21
ATOM     21  C   UNL     1      43.157  -5.088 -58.927  0.00  0.00    +0.046 C 
BRANCH  21  22
ATOM     22  C   UNL     1      42.838  -5.702 -57.559  0.00  0.00    +0.038 C 
BRANCH  22  23
ATOM     23  C   UNL     1      42.624  -4.681 -56.468  0.00  0.00    -0.047 A 
ATOM     24  C   UNL     1      41.676  -3.659 -56.618  0.00  0.00    +0.003 A 
ATOM     25  C   UNL     1      41.492  -2.712 -55.612  0.00  0.00    +0.000 A 
ATOM     26  C   UNL     1      42.250  -2.777 -54.444  0.00  0.00    +0.000 A 
ATOM     27  C   UNL     1      43.188  -3.792 -54.280  0.00  0.00    +0.000 A 
ATOM     28  C   UNL     1      43.375  -4.741 -55.287  0.00  0.00    +0.003 A 
ENDBRANCH  22  23
ENDBRANCH  21  22
ENDBRANCH  20  21
ENDBRANCH  19  20
ENDBRANCH   2  19
TORSDOF 8
ENDMDL
MODEL 3
REMARK VINA RESULT:    -5.363      2.916      4.523
REMARK INTER + INTRA:          -9.412
REMARK INTER:                  -8.474
REMARK INTRA:                  -0.938
REMARK UNBOUND:                -1.854
REMARK  Name = 
REMARK  8 active torsions:
REMARK  status: ('A' for Active; 'I' for Inactive)
REMARK    1  A    between atoms: N_2  and  C_4
REMARK    2  A    between atoms: C_5  and  O_6
REMARK    3  A    between atoms: O_6  and  C_7
REMARK    4  A    between atoms: C_7  and  C_8
REMARK    5  A    between atoms: C_8  and  C_9
REMARK    6  A    between atoms: C_9  and  C_10
REMARK    7  A    between atoms: C_21  and  O_22
REMARK    8  A    between atoms: C_23  and  O_24
REMARK                            x       y       z     vdW  Elec       q    Type
REMARK                         _______ _______ _______ _____ _____    ______ ____
ROOT
ATOM      1  C   UNL     1      46.772  -1.445 -59.306  0.00  0.00    +0.198 A 
ATOM      2  C   UNL     1      47.160  -2.783 -59.152  0.00  0.00    +0.188 A 
ATOM      3  C   UNL     1      48.443  -3.108 -59.568  0.00  0.00    +0.169 A 
ATOM      4  F   UNL     1      48.929  -4.350 -59.435  0.00  0.00    -0.202 F 
ATOM      5  C   UNL     1      49.284  -2.146 -60.122  0.00  0.00    +0.072 A 
ATOM      6  C   UNL     1      48.875  -0.832 -60.276  0.00  0.00    +0.098 A 
ATOM      7  N   UNL     1      49.741   0.040 -60.822  0.00  0.00    -0.207 NA
ATOM      8  C   UNL     1      49.311   1.305 -60.953  0.00  0.00    +0.277 A 
ATOM      9  C   UNL     1      48.047   1.690 -60.549  0.00  0.00    +0.277 A 
ATOM     10  N   UNL     1      47.161   0.846 -60.003  0.00  0.00    -0.205 NA
ATOM     11  C   UNL     1      47.574  -0.443 -59.858  0.00  0.00    +0.127 A 
ENDROOT
BRANCH   1  13
ATOM     12  O   UNL     1      45.322  -0.674 -57.718  0.00  0.00    -0.126 OA
ATOM     13  N   UNL     1      45.452  -1.063 -58.887  0.00  0.00    +0.062 N 
ATOM     14  O   UNL     1      44.547  -1.159 -59.729  0.00  0.00    -0.126 OA
ENDBRANCH   1  13
BRANCH   8  15
ATOM     15  O   UNL     1      50.188   2.192 -61.507  0.00  0.00    -0.489 OA
ATOM     16  H   UNL     1      50.048   3.027 -61.023  0.00  0.00    +0.294 HD
ENDBRANCH   8  15
BRANCH   9  17
ATOM     17  O   UNL     1      47.616   2.970 -60.683  0.00  0.00    -0.489 OA
ATOM     18  H   UNL     1      48.084   3.236 -61.498  0.00  0.00    +0.294 HD
ENDBRANCH   9  17
BRANCH   2  19
ATOM     19  O   UNL     1      46.256  -3.636 -58.587  0.00  0.00    -0.487 OA
BRANCH  19  20
ATOM     20  C   UNL     1      45.652  -4.619 -59.431  0.00  0.00    +0.229 C 
BRANCH  20  21
ATOM     21  C   UNL     1      44.135  -4.578 -59.233  0.00  0.00    +0.046 C 
BRANCH  21  22
ATOM     22  C   UNL     1      43.653  -5.296 -57.967  0.00  0.00    +0.038 C 
BRANCH  22  23
ATOM     23  C   UNL     1      43.310  -4.364 -56.831  0.00  0.00    -0.047 A 
ATOM     24  C   UNL     1      42.911  -3.044 -57.082  0.00  0.00    +0.003 A 
ATOM     25  C   UNL     1      42.607  -2.183 -56.027  0.00  0.00    +0.000 A 
ATOM     26  C   UNL     1      42.696  -2.634 -54.711  0.00  0.00    +0.000 A 
ATOM     27  C   UNL     1      43.083  -3.946 -54.449  0.00  0.00    +0.000 A 
ATOM     28  C   UNL     1      43.388  -4.808 -55.504  0.00  0.00    +0.003 A 
ENDBRANCH  22  23
ENDBRANCH  21  22
ENDBRANCH  20  21
ENDBRANCH  19  20
ENDBRANCH   2  19
TORSDOF 8
ENDMDL
MODEL 4
REMARK VINA RESULT:    -5.345     14.937     16.436
REMARK INTER + INTRA:          -9.387
REMARK INTER:                  -8.331
REMARK INTRA:                  -1.056
REMARK UNBOUND:                -1.854
REMARK  Name = 
REMARK  8 active torsions:
REMARK  status: ('A' for Active; 'I' for Inactive)
REMARK    1  A    between atoms: N_2  and  C_4
REMARK    2  A    between atoms: C_5  and  O_6
REMARK    3  A    between atoms: O_6  and  C_7
REMARK    4  A    between atoms: C_7  and  C_8
REMARK    5  A    between atoms: C_8  and  C_9
REMARK    6  A    between atoms: C_9  and  C_10
REMARK    7  A    between atoms: C_21  and  O_22
REMARK    8  A    between atoms: C_23  and  O_24
REMARK                            x       y       z     vdW  Elec       q    Type
REMARK                         _______ _______ _______ _____ _____    ______ ____
ROOT
ATOM      1  C   UNL     1      39.983   4.630 -48.259  0.00  0.00    +0.198 A 
ATOM      2  C   UNL     1      40.588   3.737 -47.365  0.00  0.00    +0.188 A 
ATOM      3  C   UNL     1      40.626   2.404 -47.751  0.00  0.00    +0.169 A 
ATOM      4  F   UNL     1      41.211   1.470 -46.987  0.00  0.00    -0.202 F 
ATOM      5  C   UNL     1      40.073   1.991 -48.960  0.00  0.00    +0.072 A 
ATOM      6  C   UNL     1      39.469   2.890 -49.823  0.00  0.00    +0.098 A 
ATOM      7  N   UNL     1      38.955   2.415 -50.972  0.00  0.00    -0.207 NA
ATOM      8  C   UNL     1      38.380   3.317 -51.784  0.00  0.00    +0.277 A 
ATOM      9  C   UNL     1      38.321   4.658 -51.458  0.00  0.00    +0.277 A 
ATOM     10  N   UNL     1      38.822   5.162 -50.321  0.00  0.00    -0.205 NA
ATOM     11  C   UNL     1      39.412   4.268 -49.481  0.00  0.00    +0.127 A 
ENDROOT
BRANCH   1  13
ATOM     12  O   UNL     1      38.918   6.401 -47.284  0.00  0.00    -0.126 OA
ATOM     13  N   UNL     1      39.923   6.020 -47.901  0.00  0.00    +0.062 N 
ATOM     14  O   UNL     1      40.881   6.728 -48.242  0.00  0.00    -0.126 OA
ENDBRANCH   1  13
BRANCH   8  15
ATOM     15  O   UNL     1      37.858   2.839 -52.951  0.00  0.00    -0.489 OA
ATOM     16  H   UNL     1      38.060   3.518 -53.620  0.00  0.00    +0.294 HD
ENDBRANCH   8  15
BRANCH   9  17
ATOM     17  O   UNL     1      37.738   5.565 -52.283  0.00  0.00    -0.489 OA
ATOM     18  H   UNL     1      36.827   5.573 -51.933  0.00  0.00    +0.294 HD
ENDBRANCH   9  17
BRANCH   2  19
ATOM     19  O   UNL     1      41.104   4.256 -46.212  0.00  0.00    -0.487 OA
BRANCH  19  20
ATOM     20  C   UNL     1      40.364   4.062 -45.005  0.00  0.00    +0.229 C 
BRANCH  20  21
ATOM     21  C   UNL     1      41.223   3.265 -44.021  0.00  0.00    +0.046 C 
BRANCH  21  22
ATOM     22  C   UNL     1      40.646   1.889 -43.664  0.00  0.00    +0.038 C 
BRANCH  22  23
ATOM     23  C   UNL     1      41.630   0.756 -43.825  0.00  0.00    -0.047 A 
ATOM     24  C   UNL     1      42.957   1.007 -44.200  0.00  0.00    +0.003 A 
ATOM     25  C   UNL     1      43.858  -0.047 -44.359  0.00  0.00    +0.000 A 
ATOM     26  C   UNL     1      43.444  -1.359 -44.142  0.00  0.00    +0.000 A 
ATOM     27  C   UNL     1      42.130  -1.620 -43.761  0.00  0.00    +0.000 A 
ATOM     28  C   UNL     1      41.227  -0.567 -43.602  0.00  0.00    +0.003 A 
ENDBRANCH  22  23
ENDBRANCH  21  22
ENDBRANCH  20  21
ENDBRANCH  19  20
ENDBRANCH   2  19
TORSDOF 8
ENDMDL
MODEL 5
REMARK VINA RESULT:    -5.251      3.901      6.188
REMARK INTER + INTRA:          -9.254
REMARK INTER:                  -8.509
REMARK INTRA:                  -0.745
REMARK UNBOUND:                -1.854
REMARK  Name = 
REMARK  8 active torsions:
REMARK  status: ('A' for Active; 'I' for Inactive)
REMARK    1  A    between atoms: N_2  and  C_4
REMARK    2  A    between atoms: C_5  and  O_6
REMARK    3  A    between atoms: O_6  and  C_7
REMARK    4  A    between atoms: C_7  and  C_8
REMARK    5  A    between atoms: C_8  and  C_9
REMARK    6  A    between atoms: C_9  and  C_10
REMARK    7  A    between atoms: C_21  and  O_22
REMARK    8  A    between atoms: C_23  and  O_24
REMARK                            x       y       z     vdW  Elec       q    Type
REMARK                         _______ _______ _______ _____ _____    ______ ____
ROOT
ATOM      1  C   UNL     1      48.068  -4.106 -59.776  0.00  0.00    +0.198 A 
ATOM      2  C   UNL     1      47.916  -2.739 -59.505  0.00  0.00    +0.188 A 
ATOM      3  C   UNL     1      48.986  -1.919 -59.833  0.00  0.00    +0.169 A 
ATOM      4  F   UNL     1      48.935  -0.593 -59.648  0.00  0.00    -0.202 F 
ATOM      5  C   UNL     1      50.150  -2.445 -60.387  0.00  0.00    +0.072 A 
ATOM      6  C   UNL     1      50.283  -3.801 -60.636  0.00  0.00    +0.098 A 
ATOM      7  N   UNL     1      51.438  -4.235 -61.170  0.00  0.00    -0.207 NA
ATOM      8  C   UNL     1      51.530  -5.555 -61.400  0.00  0.00    +0.277 A 
ATOM      9  C   UNL     1      50.493  -6.419 -61.102  0.00  0.00    +0.277 A 
ATOM     10  N   UNL     1      49.331  -6.019 -60.568  0.00  0.00    -0.205 NA
ATOM     11  C   UNL     1      49.214  -4.684 -60.328  0.00  0.00    +0.127 A 
ENDROOT
BRANCH   1  13
ATOM     12  O   UNL     1      46.988  -5.501 -58.326  0.00  0.00    -0.126 OA
ATOM     13  N   UNL     1      46.984  -4.991 -59.454  0.00  0.00    +0.062 N 
ATOM     14  O   UNL     1      46.132  -5.177 -60.336  0.00  0.00    -0.126 OA
ENDBRANCH   1  13
BRANCH   8  15
ATOM     15  O   UNL     1      52.701  -5.999 -61.942  0.00  0.00    -0.489 OA
ATOM     16  H   UNL     1      52.514  -6.906 -62.247  0.00  0.00    +0.294 HD
ENDBRANCH   8  15
BRANCH   9  17
ATOM     17  O   UNL     1      50.591  -7.754 -61.336  0.00  0.00    -0.489 OA
ATOM     18  H   UNL     1      50.028  -7.843 -62.128  0.00  0.00    +0.294 HD
ENDBRANCH   9  17
BRANCH   2  19
ATOM     19  O   UNL     1      46.727  -2.335 -58.968  0.00  0.00    -0.487 OA
BRANCH  19  20
ATOM     20  C   UNL     1      45.817  -1.636 -59.821  0.00  0.00    +0.229 C 
BRANCH  20  21
ATOM     21  C   UNL     1      44.576  -1.254 -59.012  0.00  0.00    +0.046 C 
BRANCH  21  22
ATOM     22  C   UNL     1      44.843  -1.060 -57.515  0.00  0.00    +0.038 C 
BRANCH  22  23
ATOM     23  C   UNL     1      44.174  -2.090 -56.638  0.00  0.00    -0.047 A 
ATOM     24  C   UNL     1      44.369  -3.460 -56.865  0.00  0.00    +0.003 A 
ATOM     25  C   UNL     1      43.738  -4.408 -56.059  0.00  0.00    +0.000 A 
ATOM     26  C   UNL     1      42.909  -3.997 -55.017  0.00  0.00    +0.000 A 
ATOM     27  C   UNL     1      42.715  -2.639 -54.776  0.00  0.00    +0.000 A 
ATOM     28  C   UNL     1      43.345  -1.690 -55.582  0.00  0.00    +0.003 A 
ENDBRANCH  22  23
ENDBRANCH  21  22
ENDBRANCH  20  21
ENDBRANCH  19  20
ENDBRANCH   2  19
TORSDOF 8
ENDMDL
MODEL 6
REMARK VINA RESULT:    -5.226      3.637      5.497
REMARK INTER + INTRA:          -9.218
REMARK INTER:                  -8.062
REMARK INTRA:                  -1.156
REMARK UNBOUND:                -1.854
REMARK  Name = 
REMARK  8 active torsions:
REMARK  status: ('A' for Active; 'I' for Inactive)
REMARK    1  A    between atoms: N_2  and  C_4
REMARK    2  A    between atoms: C_5  and  O_6
REMARK    3  A    between atoms: O_6  and  C_7
REMARK    4  A    between atoms: C_7  and  C_8
REMARK    5  A    between atoms: C_8  and  C_9
REMARK    6  A    between atoms: C_9  and  C_10
REMARK    7  A    between atoms: C_21  and  O_22
REMARK    8  A    between atoms: C_23  and  O_24
REMARK                            x       y       z     vdW  Elec       q    Type
REMARK                         _______ _______ _______ _____ _____    ______ ____
ROOT
ATOM      1  C   UNL     1      46.353  -1.744 -59.739  0.00  0.00    +0.198 A 
ATOM      2  C   UNL     1      45.256  -2.222 -59.009  0.00  0.00    +0.188 A 
ATOM      3  C   UNL     1      44.887  -1.486 -57.891  0.00  0.00    +0.169 A 
ATOM      4  F   UNL     1      43.833  -1.834 -57.141  0.00  0.00    -0.202 F 
ATOM      5  C   UNL     1      45.591  -0.344 -57.519  0.00  0.00    +0.072 A 
ATOM      6  C   UNL     1      46.680   0.103 -58.250  0.00  0.00    +0.098 A 
ATOM      7  N   UNL     1      47.310   1.213 -57.827  0.00  0.00    -0.207 NA
ATOM      8  C   UNL     1      48.360   1.619 -58.561  0.00  0.00    +0.277 A 
ATOM      9  C   UNL     1      48.767   0.932 -59.689  0.00  0.00    +0.277 A 
ATOM     10  N   UNL     1      48.161  -0.177 -60.135  0.00  0.00    -0.205 NA
ATOM     11  C   UNL     1      47.093  -0.607 -59.408  0.00  0.00    +0.127 A 
ENDROOT
BRANCH   1  13
ATOM     12  O   UNL     1      46.220  -2.181 -61.977  0.00  0.00    -0.126 OA
ATOM     13  N   UNL     1      46.767  -2.473 -60.905  0.00  0.00    +0.062 N 
ATOM     14  O   UNL     1      47.638  -3.340 -60.743  0.00  0.00    -0.126 OA
ENDBRANCH   1  13
BRANCH   8  15
ATOM     15  O   UNL     1      49.002   2.744 -58.135  0.00  0.00    -0.489 OA
ATOM     16  H   UNL     1      48.305   3.308 -57.752  0.00  0.00    +0.294 HD
ENDBRANCH   8  15
BRANCH   9  17
ATOM     17  O   UNL     1      49.829   1.346 -60.428  0.00  0.00    -0.489 OA
ATOM     18  H   UNL     1      50.365   0.531 -60.451  0.00  0.00    +0.294 HD
ENDBRANCH   9  17
BRANCH   2  19
ATOM     19  O   UNL     1      44.637  -3.347 -59.473  0.00  0.00    -0.487 OA
BRANCH  19  20
ATOM     20  C   UNL     1      44.758  -4.541 -58.696  0.00  0.00    +0.229 C 
BRANCH  20  21
ATOM     21  C   UNL     1      43.458  -5.339 -58.808  0.00  0.00    +0.046 C 
BRANCH  21  22
ATOM     22  C   UNL     1      42.958  -5.907 -57.475  0.00  0.00    +0.038 C 
BRANCH  22  23
ATOM     23  C   UNL     1      42.615  -4.851 -56.453  0.00  0.00    -0.047 A 
ATOM     24  C   UNL     1      41.508  -4.010 -56.635  0.00  0.00    +0.003 A 
ATOM     25  C   UNL     1      41.203  -3.028 -55.693  0.00  0.00    +0.000 A 
ATOM     26  C   UNL     1      41.998  -2.877 -54.559  0.00  0.00    +0.000 A 
ATOM     27  C   UNL     1      43.095  -3.712 -54.363  0.00  0.00    +0.000 A 
ATOM     28  C   UNL     1      43.403  -4.695 -55.305  0.00  0.00    +0.003 A 
ENDBRANCH  22  23
ENDBRANCH  21  22
ENDBRANCH  20  21
ENDBRANCH  19  20
ENDBRANCH   2  19
TORSDOF 8
ENDMDL
MODEL 7
REMARK VINA RESULT:    -5.213     15.372     16.836
REMARK INTER + INTRA:          -9.200
REMARK INTER:                  -8.168
REMARK INTRA:                  -1.032
REMARK UNBOUND:                -1.854
REMARK  Name = 
REMARK  8 active torsions:
REMARK  status: ('A' for Active; 'I' for Inactive)
REMARK    1  A    between atoms: N_2  and  C_4
REMARK    2  A    between atoms: C_5  and  O_6
REMARK    3  A    between atoms: O_6  and  C_7
REMARK    4  A    between atoms: C_7  and  C_8
REMARK    5  A    between atoms: C_8  and  C_9
REMARK    6  A    between atoms: C_9  and  C_10
REMARK    7  A    between atoms: C_21  and  O_22
REMARK    8  A    between atoms: C_23  and  O_24
REMARK                            x       y       z     vdW  Elec       q    Type
REMARK                         _______ _______ _______ _____ _____    ______ ____
ROOT
ATOM      1  C   UNL     1      37.963   3.039 -47.638  0.00  0.00    +0.198 A 
ATOM      2  C   UNL     1      39.124   2.633 -46.966  0.00  0.00    +0.188 A 
ATOM      3  C   UNL     1      40.174   2.188 -47.758  0.00  0.00    +0.169 A 
ATOM      4  F   UNL     1      41.343   1.808 -47.222  0.00  0.00    -0.202 F 
ATOM      5  C   UNL     1      40.057   2.138 -49.144  0.00  0.00    +0.072 A 
ATOM      6  C   UNL     1      38.895   2.533 -49.786  0.00  0.00    +0.098 A 
ATOM      7  N   UNL     1      38.856   2.454 -51.127  0.00  0.00    -0.207 NA
ATOM      8  C   UNL     1      37.714   2.848 -51.715  0.00  0.00    +0.277 A 
ATOM      9  C   UNL     1      36.639   3.309 -50.979  0.00  0.00    +0.277 A 
ATOM     10  N   UNL     1      36.646   3.399 -49.642  0.00  0.00    -0.205 NA
ATOM     11  C   UNL     1      37.793   3.006 -49.023  0.00  0.00    +0.127 A 
ENDROOT
BRANCH   1  13
ATOM     12  O   UNL     1      36.009   2.669 -46.514  0.00  0.00    -0.126 OA
ATOM     13  N   UNL     1      36.852   3.509 -46.858  0.00  0.00    +0.062 N 
ATOM     14  O   UNL     1      36.825   4.720 -46.595  0.00  0.00    -0.126 OA
ENDBRANCH   1  13
BRANCH   8  15
ATOM     15  O   UNL     1      37.671   2.769 -53.076  0.00  0.00    -0.489 OA
ATOM     16  H   UNL     1      36.899   2.208 -53.276  0.00  0.00    +0.294 HD
ENDBRANCH   8  15
BRANCH   9  17
ATOM     17  O   UNL     1      35.486   3.706 -51.577  0.00  0.00    -0.489 OA
ATOM     18  H   UNL     1      35.810   3.925 -52.472  0.00  0.00    +0.294 HD
ENDBRANCH   9  17
BRANCH   2  19
ATOM     19  O   UNL     1      39.129   2.734 -45.604  0.00  0.00    -0.487 OA
BRANCH  19  20
ATOM     20  C   UNL     1      39.981   3.718 -45.014  0.00  0.00    +0.229 C 
BRANCH  20  21
ATOM     21  C   UNL     1      40.729   3.085 -43.839  0.00  0.00    +0.046 C 
BRANCH  21  22
ATOM     22  C   UNL     1      40.405   1.602 -43.621  0.00  0.00    +0.038 C 
BRANCH  22  23
ATOM     23  C   UNL     1      41.590   0.686 -43.805  0.00  0.00    -0.047 A 
ATOM     24  C   UNL     1      41.479  -0.689 -43.554  0.00  0.00    +0.003 A 
ATOM     25  C   UNL     1      42.581  -1.529 -43.715  0.00  0.00    +0.000 A 
ATOM     26  C   UNL     1      43.804  -1.005 -44.131  0.00  0.00    +0.000 A 
ATOM     27  C   UNL     1      43.924   0.358 -44.391  0.00  0.00    +0.000 A 
ATOM     28  C   UNL     1      42.822   1.200 -44.230  0.00  0.00    +0.003 A 
ENDBRANCH  22  23
ENDBRANCH  21  22
ENDBRANCH  20  21
ENDBRANCH  19  20
ENDBRANCH   2  19
TORSDOF 8
ENDMDL
MODEL 8
REMARK VINA RESULT:    -5.161      4.000      5.747
REMARK INTER + INTRA:          -9.127
REMARK INTER:                  -8.309
REMARK INTRA:                  -0.817
REMARK UNBOUND:                -1.854
REMARK  Name = 
REMARK  8 active torsions:
REMARK  status: ('A' for Active; 'I' for Inactive)
REMARK    1  A    between atoms: N_2  and  C_4
REMARK    2  A    between atoms: C_5  and  O_6
REMARK    3  A    between atoms: O_6  and  C_7
REMARK    4  A    between atoms: C_7  and  C_8
REMARK    5  A    between atoms: C_8  and  C_9
REMARK    6  A    between atoms: C_9  and  C_10
REMARK    7  A    between atoms: C_21  and  O_22
REMARK    8  A    between atoms: C_23  and  O_24
REMARK                            x       y       z     vdW  Elec       q    Type
REMARK                         _______ _______ _______ _____ _____    ______ ____
ROOT
ATOM      1  C   UNL     1      45.862  -0.360 -60.124  0.00  0.00    +0.198 A 
ATOM      2  C   UNL     1      45.360  -0.314 -58.816  0.00  0.00    +0.188 A 
ATOM      3  C   UNL     1      46.123   0.376 -57.884  0.00  0.00    +0.169 A 
ATOM      4  F   UNL     1      45.721   0.511 -56.612  0.00  0.00    -0.202 F 
ATOM      5  C   UNL     1      47.329   0.971 -58.242  0.00  0.00    +0.072 A 
ATOM      6  C   UNL     1      47.812   0.903 -59.539  0.00  0.00    +0.098 A 
ATOM      7  N   UNL     1      48.986   1.501 -59.808  0.00  0.00    -0.207 NA
ATOM      8  C   UNL     1      49.420   1.416 -61.076  0.00  0.00    +0.277 A 
ATOM      9  C   UNL     1      48.700   0.751 -62.049  0.00  0.00    +0.277 A 
ATOM     10  N   UNL     1      47.528   0.144 -61.813  0.00  0.00    -0.205 NA
ATOM     11  C   UNL     1      47.065   0.218 -60.535  0.00  0.00    +0.127 A 
ENDROOT
BRANCH   1  13
ATOM     12  O   UNL     1      45.302  -2.279 -61.228  0.00  0.00    -0.126 OA
ATOM     13  N   UNL     1      45.104  -1.061 -61.122  0.00  0.00    +0.062 N 
ATOM     14  O   UNL     1      44.314  -0.389 -61.801  0.00  0.00    -0.126 OA
ENDBRANCH   1  13
BRANCH   8  15
ATOM     15  O   UNL     1      50.611   2.021 -61.353  0.00  0.00    -0.489 OA
ATOM     16  H   UNL     1      51.277   1.521 -60.847  0.00  0.00    +0.294 HD
ENDBRANCH   8  15
BRANCH   9  17
ATOM     17  O   UNL     1      49.144   0.667 -63.330  0.00  0.00    -0.489 OA
ATOM     18  H   UNL     1      48.744  -0.179 -63.608  0.00  0.00    +0.294 HD
ENDBRANCH   9  17
BRANCH   2  19
ATOM     19  O   UNL     1      44.162  -0.926 -58.582  0.00  0.00    -0.487 OA
BRANCH  19  20
ATOM     20  C   UNL     1      42.987  -0.112 -58.590  0.00  0.00    +0.229 C 
BRANCH  20  21
ATOM     21  C   UNL     1      42.519   0.096 -57.148  0.00  0.00    +0.046 C 
BRANCH  21  22
ATOM     22  C   UNL     1      41.448  -0.902 -56.691  0.00  0.00    +0.038 C 
BRANCH  22  23
ATOM     23  C   UNL     1      42.003  -2.236 -56.258  0.00  0.00    -0.047 A 
ATOM     24  C   UNL     1      41.665  -3.411 -56.946  0.00  0.00    +0.003 A 
ATOM     25  C   UNL     1      42.172  -4.643 -56.534  0.00  0.00    +0.000 A 
ATOM     26  C   UNL     1      43.024  -4.715 -55.432  0.00  0.00    +0.000 A 
ATOM     27  C   UNL     1      43.373  -3.554 -54.747  0.00  0.00    +0.000 A 
ATOM     28  C   UNL     1      42.866  -2.320 -55.158  0.00  0.00    +0.003 A 
ENDBRANCH  22  23
ENDBRANCH  21  22
ENDBRANCH  20  21
ENDBRANCH  19  20
ENDBRANCH   2  19
TORSDOF 8
ENDMDL
MODEL 9
REMARK VINA RESULT:    -5.069      3.774      6.232
REMARK INTER + INTRA:          -8.998
REMARK INTER:                  -7.466
REMARK INTRA:                  -1.532
REMARK UNBOUND:                -1.854
REMARK  Name = 
REMARK  8 active torsions:
REMARK  status: ('A' for Active; 'I' for Inactive)
REMARK    1  A    between atoms: N_2  and  C_4
REMARK    2  A    between atoms: C_5  and  O_6
REMARK    3  A    between atoms: O_6  and  C_7
REMARK    4  A    between atoms: C_7  and  C_8
REMARK    5  A    between atoms: C_8  and  C_9
REMARK    6  A    between atoms: C_9  and  C_10
REMARK    7  A    between atoms: C_21  and  O_22
REMARK    8  A    between atoms: C_23  and  O_24
REMARK                            x       y       z     vdW  Elec       q    Type
REMARK                         _______ _______ _______ _____ _____    ______ ____
ROOT
ATOM      1  C   UNL     1      46.785  -1.390 -59.556  0.00  0.00    +0.198 A 
ATOM      2  C   UNL     1      45.402  -1.176 -59.480  0.00  0.00    +0.188 A 
ATOM      3  C   UNL     1      44.602  -2.308 -59.417  0.00  0.00    +0.169 A 
ATOM      4  F   UNL     1      43.269  -2.219 -59.309  0.00  0.00    -0.202 F 
ATOM      5  C   UNL     1      45.159  -3.584 -59.445  0.00  0.00    +0.072 A 
ATOM      6  C   UNL     1      46.529  -3.772 -59.532  0.00  0.00    +0.098 A 
ATOM      7  N   UNL     1      46.993  -5.034 -59.556  0.00  0.00    -0.207 NA
ATOM      8  C   UNL     1      48.326  -5.177 -59.638  0.00  0.00    +0.277 A 
ATOM      9  C   UNL     1      49.173  -4.087 -59.694  0.00  0.00    +0.277 A 
ATOM     10  N   UNL     1      48.742  -2.818 -59.673  0.00  0.00    -0.205 NA
ATOM     11  C   UNL     1      47.394  -2.646 -59.589  0.00  0.00    +0.127 A 
ENDROOT
BRANCH   1  13
ATOM     12  O   UNL     1      48.062   0.212 -58.546  0.00  0.00    -0.126 OA
ATOM     13  N   UNL     1      47.650  -0.246 -59.621  0.00  0.00    +0.062 N 
ATOM     14  O   UNL     1      47.913   0.195 -60.749  0.00  0.00    -0.126 OA
ENDBRANCH   1  13
BRANCH   8  15
ATOM     15  O   UNL     1      48.801  -6.456 -59.663  0.00  0.00    -0.489 OA
ATOM     16  H   UNL     1      48.820  -6.740 -58.731  0.00  0.00    +0.294 HD
ENDBRANCH   8  15
BRANCH   9  17
ATOM     17  O   UNL     1      50.520  -4.236 -59.778  0.00  0.00    -0.489 OA
ATOM     18  H   UNL     1      50.718  -3.684 -60.558  0.00  0.00    +0.294 HD
ENDBRANCH   9  17
BRANCH   2  19
ATOM     19  O   UNL     1      44.968   0.119 -59.451  0.00  0.00    -0.487 OA
BRANCH  19  20
ATOM     20  C   UNL     1      44.163   0.525 -58.342  0.00  0.00    +0.229 C 
BRANCH  20  21
ATOM     21  C   UNL     1      44.902   0.190 -57.045  0.00  0.00    +0.046 C 
BRANCH  21  22
ATOM     22  C   UNL     1      43.978  -0.189 -55.881  0.00  0.00    +0.038 C 
BRANCH  22  23
ATOM     23  C   UNL     1      43.365  -1.561 -56.013  0.00  0.00    -0.047 A 
ATOM     24  C   UNL     1      41.989  -1.713 -56.238  0.00  0.00    +0.003 A 
ATOM     25  C   UNL     1      41.426  -2.985 -56.346  0.00  0.00    +0.000 A 
ATOM     26  C   UNL     1      42.232  -4.117 -56.234  0.00  0.00    +0.000 A 
ATOM     27  C   UNL     1      43.600  -3.978 -56.019  0.00  0.00    +0.000 A 
ATOM     28  C   UNL     1      44.165  -2.707 -55.909  0.00  0.00    +0.003 A 
ENDBRANCH  22  23
ENDBRANCH  21  22
ENDBRANCH  20  21
ENDBRANCH  19  20
ENDBRANCH   2  19
TORSDOF 8
ENDMDL
