MODEL 1
REMARK VINA RESULT:    -7.112      0.000      0.000
REMARK INTER + INTRA:         -10.521
REMARK INTER:                  -9.398
REMARK INTRA:                  -1.122
REMARK UNBOUND:                -1.122
REMARK  Name = 
REMARK  9 active torsions:
REMARK  status: ('A' for Active; 'I' for Inactive)
REMARK    1  A    between atoms: C_1  and  C_2
REMARK    2  A    between atoms: C_5  and  C_6
REMARK    3  A    between atoms: C_9  and  C_10
REMARK    4  A    between atoms: C_13  and  C_14
REMARK    5  A    between atoms: N_16  and  C_17
REMARK    6  A    between atoms: C_20  and  O_21
REMARK    7  A    between atoms: C_22  and  N_23
REMARK    8  A    between atoms: N_26  and  C_27
REMARK    9  A    between atoms: C_33  and  C_34
REMARK                            x       y       z     vdW  Elec       q    Type
REMARK                         _______ _______ _______ _____ _____    ______ ____
ROOT
ATOM      1  C   UNL     1      -2.704  -1.906  -3.105  0.00  0.00    -0.018 A 
ATOM      2  C   UNL     1      -3.181  -3.038  -3.784  0.00  0.00    +0.009 A 
ATOM      3  C   UNL     1      -3.895  -2.908  -4.981  0.00  0.00    +0.013 A 
ATOM      4  C   UNL     1      -4.133  -1.637  -5.518  0.00  0.00    +0.037 A 
ATOM      5  C   UNL     1      -3.687  -0.502  -4.832  0.00  0.00    +0.013 A 
ATOM      6  C   UNL     1      -2.974  -0.637  -3.638  0.00  0.00    +0.009 A 
ENDROOT
BRANCH   1  10
ATOM      7  C   UNL     1      -0.552  -2.297   0.607  0.00  0.00    +0.039 A 
ATOM      8  C   UNL     1      -1.950  -2.330   0.567  0.00  0.00    +0.014 A 
ATOM      9  C   UNL     1      -2.635  -2.207  -0.646  0.00  0.00    +0.009 A 
ATOM     10  C   UNL     1      -1.942  -2.045  -1.857  0.00  0.00    -0.015 A 
ATOM     11  C   UNL     1      -0.531  -2.016  -1.831  0.00  0.00    -0.042 A 
ATOM     12  C   UNL     1       0.275  -1.839  -3.091  0.00  0.00    +0.044 C 
ATOM     13  C   UNL     1       0.144  -2.139  -0.601  0.00  0.00    +0.017 A 
BRANCH   7  18
ATOM     14  C   UNL     1      -0.137  -3.032   5.343  0.00  0.00    +0.111 C 
ATOM     15  C   UNL     1       0.327  -2.744   3.977  0.00  0.00    +0.215 A 
ATOM     16  N   UNL     1       1.540  -2.499   3.534  0.00  0.00    -0.112 NA
ATOM     17  N   UNL     1       1.419  -2.287   2.175  0.00  0.00    -0.107 NA
ATOM     18  C   UNL     1       0.140  -2.418   1.884  0.00  0.00    +0.248 A 
ATOM     19  O   UNL     1      -0.620  -2.710   2.990  0.00  0.00    -0.421 OA
ENDBRANCH   7  18
ENDBRANCH   1  10
BRANCH   4  20
ATOM     20  C   UNL     1      -4.876  -1.444  -6.797  0.00  0.00    +0.248 C 
ATOM     21  O   UNL     1      -5.733  -2.265  -7.097  0.00  0.00    -0.270 OA
ATOM     22  N   UNL     1      -4.531  -0.306  -7.505  0.00  0.00    -0.281 N 
ATOM     23  H   UNL     1      -3.875   0.330  -7.068  0.00  0.00    +0.155 HD
BRANCH  22  24
ATOM     24  C   UNL     1      -5.066   0.137  -8.733  0.00  0.00    +0.036 A 
ATOM     25  C   UNL     1      -6.422   0.089  -9.056  0.00  0.00    +0.027 A 
ATOM     26  C   UNL     1      -6.873   0.565 -10.291  0.00  0.00    +0.049 A 
ATOM     27  C   UNL     1      -5.965   1.087 -11.213  0.00  0.00    +0.138 A 
ATOM     28  C   UNL     1      -4.591   1.140 -10.921  0.00  0.00    +0.074 A 
ATOM     29  C   UNL     1      -4.165   0.656  -9.673  0.00  0.00    +0.050 A 
BRANCH  28  30
ATOM     30  N   UNL     1      -3.600   1.640 -11.788  0.00  0.00    -0.325 N 
ATOM     31  C   UNL     1      -2.907   2.820 -11.232  0.00  0.00    +0.120 C 
ATOM     32  C   UNL     1      -1.749   3.247 -12.164  0.00  0.00    +0.103 C 
ATOM     33  N   UNL     1      -0.723   2.210 -12.416  0.00  0.00    -0.302 NA
ATOM     34  C   UNL     1       0.539   2.522 -11.752  0.00  0.00    +0.105 C 
ATOM     35  C   UNL     1      -1.206   0.870 -12.010  0.00  0.00    +0.103 C 
ATOM     36  C   UNL     1      -2.693   0.607 -12.343  0.00  0.00    +0.120 C 
ENDBRANCH  28  30
BRANCH  27  37
ATOM     37  O   UNL     1      -6.424   1.553 -12.416  0.00  0.00    -0.505 OA
ATOM     38  H   UNL     1      -5.785   2.197 -12.760  0.00  0.00    +0.292 HD
ENDBRANCH  27  37
ENDBRANCH  22  24
ENDBRANCH   4  20
TORSDOF 6
ENDMDL
