MODEL 1
REMARK VINA RESULT:    -7.674      0.000      0.000
REMARK INTER + INTRA:          -9.733
REMARK INTER:                  -9.469
REMARK INTRA:                  -0.264
REMARK UNBOUND:                -0.264
REMARK  Name = 
REMARK  6 active torsions:
REMARK  status: ('A' for Active; 'I' for Inactive)
REMARK    1  A    between atoms: C_1  and  C_2
REMARK    2  A    between atoms: C_4  and  C_5
REMARK    3  A    between atoms: C_7  and  N_8
REMARK    4  A    between atoms: C_9  and  C_11
REMARK    5  A    between atoms: C_15  and  C_16
REMARK    6  A    between atoms: C_19  and  C_20
REMARK                            x       y       z     vdW  Elec       q    Type
REMARK                         _______ _______ _______ _____ _____    ______ ____
ROOT
ATOM      1  C   UNL     1     -20.357   6.977  -6.766  0.00  0.00    +0.144 A 
ATOM      2  C   UNL     1     -19.616   7.417  -5.681  0.00  0.00    +0.143 A 
ATOM      3  N   UNL     1     -19.499   6.680  -4.550  0.00  0.00    -0.259 NA
ATOM      4  C   UNL     1     -20.157   5.492  -4.559  0.00  0.00    +0.139 A 
ATOM      5  C   UNL     1     -20.904   5.030  -5.646  0.00  0.00    +0.090 A 
ATOM      6  N   UNL     1     -21.018   5.781  -6.774  0.00  0.00    -0.239 NA
ENDROOT
BRANCH   5   7
ATOM      7  C   UNL     1     -21.614   3.737  -5.652  0.00  0.00    +0.002 A 
ATOM      8  C   UNL     1     -20.914   2.536  -5.431  0.00  0.00    +0.011 A 
ATOM      9  C   UNL     1     -21.567   1.298  -5.432  0.00  0.00    +0.019 A 
ATOM     10  C   UNL     1     -22.943   1.233  -5.650  0.00  0.00    +0.052 A 
ATOM     11  C   UNL     1     -23.660   2.412  -5.866  0.00  0.00    +0.019 A 
ATOM     12  C   UNL     1     -23.002   3.649  -5.865  0.00  0.00    +0.011 A 
BRANCH  10  13
ATOM     13  C   UNL     1     -23.617  -0.033  -5.651  0.00  0.00    +0.099 C 
ATOM     14  N   UNL     1     -24.161  -1.058  -5.652  0.00  0.00    -0.191 NA
ENDBRANCH  10  13
ENDBRANCH   5   7
BRANCH   1  16
ATOM     15  N   UNL     1     -19.613   7.388  -9.004  0.00  0.00    -0.280 N 
ATOM     16  C   UNL     1     -20.458   7.812  -7.997  0.00  0.00    +0.268 C 
ATOM     17  O   UNL     1     -21.236   8.757  -8.022  0.00  0.00    -0.268 OA
ATOM     18  H   UNL     1     -19.043   6.581  -8.761  0.00  0.00    +0.155 HD
BRANCH  15  25
ATOM     19  C   UNL     1     -19.051  11.444 -11.715  0.00  0.00    +0.044 C 
ATOM     20  C   UNL     1     -19.146   9.949 -11.626  0.00  0.00    -0.048 A 
ATOM     21  C   UNL     1     -19.125   9.169 -12.786  0.00  0.00    +0.006 A 
ATOM     22  C   UNL     1     -19.237   7.776 -12.711  0.00  0.00    -0.048 A 
ATOM     23  C   UNL     1     -19.239   6.944 -13.959  0.00  0.00    +0.044 C 
ATOM     24  C   UNL     1     -19.408   7.166 -11.457  0.00  0.00    +0.026 A 
ATOM     25  C   UNL     1     -19.446   7.930 -10.291  0.00  0.00    +0.034 A 
ATOM     26  C   UNL     1     -19.317   9.322 -10.385  0.00  0.00    +0.026 A 
ENDBRANCH  15  25
ENDBRANCH   1  16
TORSDOF 4
ENDMDL
MODEL 2
REMARK VINA RESULT:    -6.849      3.615      6.667
REMARK INTER + INTRA:          -8.715
REMARK INTER:                  -8.427
REMARK INTRA:                  -0.288
REMARK UNBOUND:                -0.264
REMARK  Name = 
REMARK  6 active torsions:
REMARK  status: ('A' for Active; 'I' for Inactive)
REMARK    1  A    between atoms: C_1  and  C_2
REMARK    2  A    between atoms: C_4  and  C_5
REMARK    3  A    between atoms: C_7  and  N_8
REMARK    4  A    between atoms: C_9  and  C_11
REMARK    5  A    between atoms: C_15  and  C_16
REMARK    6  A    between atoms: C_19  and  C_20
REMARK                            x       y       z     vdW  Elec       q    Type
REMARK                         _______ _______ _______ _____ _____    ______ ____
ROOT
ATOM      1  C   UNL     1     -23.170   1.692  -5.674  0.00  0.00    +0.144 A 
ATOM      2  C   UNL     1     -23.827   1.292  -4.522  0.00  0.00    +0.143 A 
ATOM      3  N   UNL     1     -24.888   0.450  -4.561  0.00  0.00    -0.259 NA
ATOM      4  C   UNL     1     -25.256   0.035  -5.800  0.00  0.00    +0.139 A 
ATOM      5  C   UNL     1     -24.602   0.425  -6.973  0.00  0.00    +0.090 A 
ATOM      6  N   UNL     1     -23.541   1.274  -6.922  0.00  0.00    -0.239 NA
ENDROOT
BRANCH   5   7
ATOM      7  C   UNL     1     -25.004  -0.031  -8.316  0.00  0.00    +0.002 A 
ATOM      8  C   UNL     1     -26.006  -1.009  -8.469  0.00  0.00    +0.011 A 
ATOM      9  C   UNL     1     -26.403  -1.457  -9.735  0.00  0.00    +0.019 A 
ATOM     10  C   UNL     1     -25.809  -0.930 -10.882  0.00  0.00    +0.052 A 
ATOM     11  C   UNL     1     -24.818   0.045 -10.756  0.00  0.00    +0.019 A 
ATOM     12  C   UNL     1     -24.422   0.490  -9.487  0.00  0.00    +0.011 A 
BRANCH  10  13
ATOM     13  C   UNL     1     -26.214  -1.385 -12.180  0.00  0.00    +0.099 C 
ATOM     14  N   UNL     1     -26.543  -1.751 -13.231  0.00  0.00    -0.191 NA
ENDBRANCH  10  13
ENDBRANCH   5   7
BRANCH   1  16
ATOM     15  N   UNL     1     -22.312   3.909  -5.969  0.00  0.00    -0.280 N 
ATOM     16  C   UNL     1     -22.001   2.616  -5.593  0.00  0.00    +0.268 C 
ATOM     17  O   UNL     1     -20.917   2.184  -5.223  0.00  0.00    -0.268 OA
ATOM     18  H   UNL     1     -23.280   4.041  -6.252  0.00  0.00    +0.155 HD
BRANCH  15  25
ATOM     19  C   UNL     1     -18.889   6.571  -3.664  0.00  0.00    +0.044 C 
ATOM     20  C   UNL     1     -19.753   6.335  -4.868  0.00  0.00    -0.048 A 
ATOM     21  C   UNL     1     -19.738   7.238  -5.936  0.00  0.00    +0.006 A 
ATOM     22  C   UNL     1     -20.560   7.036  -7.052  0.00  0.00    -0.048 A 
ATOM     23  C   UNL     1     -20.559   8.020  -8.185  0.00  0.00    +0.044 C 
ATOM     24  C   UNL     1     -21.430   5.935  -7.076  0.00  0.00    +0.026 A 
ATOM     25  C   UNL     1     -21.469   5.032  -6.012  0.00  0.00    +0.034 A 
ATOM     26  C   UNL     1     -20.628   5.242  -4.911  0.00  0.00    +0.026 A 
ENDBRANCH  15  25
ENDBRANCH   1  16
TORSDOF 4
ENDMDL
MODEL 3
REMARK VINA RESULT:    -6.826      3.604      6.626
REMARK INTER + INTRA:          -8.686
REMARK INTER:                  -8.243
REMARK INTRA:                  -0.443
REMARK UNBOUND:                -0.264
REMARK  Name = 
REMARK  6 active torsions:
REMARK  status: ('A' for Active; 'I' for Inactive)
REMARK    1  A    between atoms: C_1  and  C_2
REMARK    2  A    between atoms: C_4  and  C_5
REMARK    3  A    between atoms: C_7  and  N_8
REMARK    4  A    between atoms: C_9  and  C_11
REMARK    5  A    between atoms: C_15  and  C_16
REMARK    6  A    between atoms: C_19  and  C_20
REMARK                            x       y       z     vdW  Elec       q    Type
REMARK                         _______ _______ _______ _____ _____    ______ ____
ROOT
ATOM      1  C   UNL     1     -23.125   1.749  -5.687  0.00  0.00    +0.144 A 
ATOM      2  C   UNL     1     -23.790   1.368  -4.533  0.00  0.00    +0.143 A 
ATOM      3  N   UNL     1     -24.859   0.536  -4.566  0.00  0.00    -0.259 NA
ATOM      4  C   UNL     1     -25.226   0.110  -5.801  0.00  0.00    +0.139 A 
ATOM      5  C   UNL     1     -24.564   0.479  -6.976  0.00  0.00    +0.090 A 
ATOM      6  N   UNL     1     -23.496   1.319  -6.931  0.00  0.00    -0.239 NA
ENDROOT
BRANCH   5   7
ATOM      7  C   UNL     1     -24.965   0.011  -8.316  0.00  0.00    +0.002 A 
ATOM      8  C   UNL     1     -25.485  -1.286  -8.494  0.00  0.00    +0.011 A 
ATOM      9  C   UNL     1     -25.872  -1.752  -9.756  0.00  0.00    +0.019 A 
ATOM     10  C   UNL     1     -25.753  -0.925 -10.873  0.00  0.00    +0.052 A 
ATOM     11  C   UNL     1     -25.247   0.367 -10.721  0.00  0.00    +0.019 A 
ATOM     12  C   UNL     1     -24.860   0.829  -9.456  0.00  0.00    +0.011 A 
BRANCH  10  13
ATOM     13  C   UNL     1     -26.151  -1.397 -12.168  0.00  0.00    +0.099 C 
ATOM     14  N   UNL     1     -26.473  -1.780 -13.215  0.00  0.00    -0.191 NA
ENDBRANCH  10  13
ENDBRANCH   5   7
BRANCH   1  16
ATOM     15  N   UNL     1     -22.270   3.976  -5.895  0.00  0.00    -0.280 N 
ATOM     16  C   UNL     1     -21.948   2.662  -5.613  0.00  0.00    +0.268 C 
ATOM     17  O   UNL     1     -20.848   2.206  -5.326  0.00  0.00    -0.268 OA
ATOM     18  H   UNL     1     -23.251   4.128  -6.118  0.00  0.00    +0.155 HD
BRANCH  15  25
ATOM     19  C   UNL     1     -20.522   7.761  -8.491  0.00  0.00    +0.044 C 
ATOM     20  C   UNL     1     -20.578   6.987  -7.206  0.00  0.00    -0.048 A 
ATOM     21  C   UNL     1     -19.771   7.354  -6.125  0.00  0.00    +0.006 A 
ATOM     22  C   UNL     1     -19.800   6.621  -4.932  0.00  0.00    -0.048 A 
ATOM     23  C   UNL     1     -18.915   7.004  -3.782  0.00  0.00    +0.044 C 
ATOM     24  C   UNL     1     -20.623   5.488  -4.841  0.00  0.00    +0.026 A 
ATOM     25  C   UNL     1     -21.422   5.098  -5.916  0.00  0.00    +0.034 A 
ATOM     26  C   UNL     1     -21.392   5.852  -7.096  0.00  0.00    +0.026 A 
ENDBRANCH  15  25
ENDBRANCH   1  16
TORSDOF 4
ENDMDL
MODEL 4
REMARK VINA RESULT:    -4.781      4.941      8.960
REMARK INTER + INTRA:          -6.164
REMARK INTER:                  -5.663
REMARK INTRA:                  -0.501
REMARK UNBOUND:                -0.264
REMARK  Name = 
REMARK  6 active torsions:
REMARK  status: ('A' for Active; 'I' for Inactive)
REMARK    1  A    between atoms: C_1  and  C_2
REMARK    2  A    between atoms: C_4  and  C_5
REMARK    3  A    between atoms: C_7  and  N_8
REMARK    4  A    between atoms: C_9  and  C_11
REMARK    5  A    between atoms: C_15  and  C_16
REMARK    6  A    between atoms: C_19  and  C_20
REMARK                            x       y       z     vdW  Elec       q    Type
REMARK                         _______ _______ _______ _____ _____    ______ ____
ROOT
ATOM      1  C   UNL     1     -24.663  -0.502  -6.695  0.00  0.00    +0.144 A 
ATOM      2  C   UNL     1     -25.284  -0.959  -5.545  0.00  0.00    +0.143 A 
ATOM      3  N   UNL     1     -25.069  -0.381  -4.338  0.00  0.00    -0.259 NA
ATOM      4  C   UNL     1     -24.207   0.668  -4.342  0.00  0.00    +0.139 A 
ATOM      5  C   UNL     1     -23.575   1.146  -5.494  0.00  0.00    +0.090 A 
ATOM      6  N   UNL     1     -23.795   0.554  -6.698  0.00  0.00    -0.239 NA
ENDROOT
BRANCH   5   7
ATOM      7  C   UNL     1     -22.642   2.288  -5.493  0.00  0.00    +0.002 A 
ATOM      8  C   UNL     1     -23.081   3.571  -5.872  0.00  0.00    +0.011 A 
ATOM      9  C   UNL     1     -22.213   4.669  -5.878  0.00  0.00    +0.019 A 
ATOM     10  C   UNL     1     -20.880   4.510  -5.499  0.00  0.00    +0.052 A 
ATOM     11  C   UNL     1     -20.423   3.248  -5.113  0.00  0.00    +0.019 A 
ATOM     12  C   UNL     1     -21.295   2.151  -5.109  0.00  0.00    +0.011 A 
BRANCH  10  13
ATOM     13  C   UNL     1     -19.988   5.632  -5.502  0.00  0.00    +0.099 C 
ATOM     14  N   UNL     1     -19.266   6.541  -5.505  0.00  0.00    -0.191 NA
ENDBRANCH  10  13
ENDBRANCH   5   7
BRANCH   1  16
ATOM     15  N   UNL     1     -25.461  -0.296  -8.943  0.00  0.00    -0.280 N 
ATOM     16  C   UNL     1     -24.928  -1.161  -8.007  0.00  0.00    +0.268 C 
ATOM     17  O   UNL     1     -24.670  -2.349  -8.148  0.00  0.00    -0.268 OA
ATOM     18  H   UNL     1     -25.602   0.653  -8.604  0.00  0.00    +0.155 HD
BRANCH  15  25
ATOM     19  C   UNL     1     -24.556   0.505 -13.703  0.00  0.00    +0.044 C 
ATOM     20  C   UNL     1     -25.356  -0.179 -12.634  0.00  0.00    -0.048 A 
ATOM     21  C   UNL     1     -26.442  -0.991 -12.976  0.00  0.00    +0.006 A 
ATOM     22  C   UNL     1     -27.208  -1.613 -11.983  0.00  0.00    -0.048 A 
ATOM     23  C   UNL     1     -28.387  -2.464 -12.352  0.00  0.00    +0.044 C 
ATOM     24  C   UNL     1     -26.899  -1.386 -10.632  0.00  0.00    +0.026 A 
ATOM     25  C   UNL     1     -25.828  -0.566 -10.273  0.00  0.00    +0.034 A 
ATOM     26  C   UNL     1     -25.064   0.035 -11.281  0.00  0.00    +0.026 A 
ENDBRANCH  15  25
ENDBRANCH   1  16
TORSDOF 4
ENDMDL
MODEL 5
REMARK VINA RESULT:    -4.715     10.732     13.482
REMARK INTER + INTRA:          -6.082
REMARK INTER:                  -5.514
REMARK INTRA:                  -0.569
REMARK UNBOUND:                -0.264
REMARK  Name = 
REMARK  6 active torsions:
REMARK  status: ('A' for Active; 'I' for Inactive)
REMARK    1  A    between atoms: C_1  and  C_2
REMARK    2  A    between atoms: C_4  and  C_5
REMARK    3  A    between atoms: C_7  and  N_8
REMARK    4  A    between atoms: C_9  and  C_11
REMARK    5  A    between atoms: C_15  and  C_16
REMARK    6  A    between atoms: C_19  and  C_20
REMARK                            x       y       z     vdW  Elec       q    Type
REMARK                         _______ _______ _______ _____ _____    ______ ____
ROOT
ATOM      1  C   UNL     1     -27.027  16.431 -12.813  0.00  0.00    +0.144 A 
ATOM      2  C   UNL     1     -28.148  16.670 -13.592  0.00  0.00    +0.143 A 
ATOM      3  N   UNL     1     -29.320  17.080 -13.050  0.00  0.00    -0.259 NA
ATOM      4  C   UNL     1     -29.314  17.235 -11.701  0.00  0.00    +0.139 A 
ATOM      5  C   UNL     1     -28.191  17.003 -10.900  0.00  0.00    +0.090 A 
ATOM      6  N   UNL     1     -27.022  16.587 -11.455  0.00  0.00    -0.239 NA
ENDROOT
BRANCH   5   7
ATOM      7  C   UNL     1     -28.189  17.176  -9.436  0.00  0.00    +0.002 A 
ATOM      8  C   UNL     1     -29.366  16.970  -8.690  0.00  0.00    +0.011 A 
ATOM      9  C   UNL     1     -29.387  17.129  -7.299  0.00  0.00    +0.019 A 
ATOM     10  C   UNL     1     -28.225  17.493  -6.618  0.00  0.00    +0.052 A 
ATOM     11  C   UNL     1     -27.044  17.696  -7.336  0.00  0.00    +0.019 A 
ATOM     12  C   UNL     1     -27.028  17.537  -8.728  0.00  0.00    +0.011 A 
BRANCH  10  13
ATOM     13  C   UNL     1     -28.241  17.654  -5.194  0.00  0.00    +0.099 C 
ATOM     14  N   UNL     1     -28.253  17.786  -4.040  0.00  0.00    -0.191 NA
ENDBRANCH  10  13
ENDBRANCH   5   7
BRANCH   1  16
ATOM     15  N   UNL     1     -24.633  16.459 -12.787  0.00  0.00    -0.280 N 
ATOM     16  C   UNL     1     -25.752  15.986 -13.445  0.00  0.00    +0.268 C 
ATOM     17  O   UNL     1     -25.789  15.277 -14.443  0.00  0.00    -0.268 OA
ATOM     18  H   UNL     1     -24.838  17.043 -11.980  0.00  0.00    +0.155 HD
BRANCH  15  25
ATOM     19  C   UNL     1     -20.672  13.629 -12.135  0.00  0.00    +0.044 C 
ATOM     20  C   UNL     1     -21.324  14.815 -12.784  0.00  0.00    -0.048 A 
ATOM     21  C   UNL     1     -20.580  15.671 -13.601  0.00  0.00    +0.006 A 
ATOM     22  C   UNL     1     -21.177  16.793 -14.189  0.00  0.00    -0.048 A 
ATOM     23  C   UNL     1     -20.369  17.722 -15.047  0.00  0.00    +0.044 C 
ATOM     24  C   UNL     1     -22.526  17.074 -13.922  0.00  0.00    +0.026 A 
ATOM     25  C   UNL     1     -23.279  16.240 -13.096  0.00  0.00    +0.034 A 
ATOM     26  C   UNL     1     -22.669  15.113 -12.529  0.00  0.00    +0.026 A 
ENDBRANCH  15  25
ENDBRANCH   1  16
TORSDOF 4
ENDMDL
