MODEL 1
REMARK VINA RESULT:    -7.574      0.000      0.000
REMARK INTER + INTRA:         -11.690
REMARK INTER:                 -11.116
REMARK INTRA:                  -0.574
REMARK UNBOUND:                -0.574
REMARK  Name = 
REMARK  9 active torsions:
REMARK  status: ('A' for Active; 'I' for Inactive)
REMARK    1  A    between atoms: C_1  and  S_2
REMARK    2  A    between atoms: S_2  and  N_5
REMARK    3  A    between atoms: C_6  and  C_8
REMARK    4  A    between atoms: C_10  and  C_11
REMARK    5  A    between atoms: C_14  and  O_15
REMARK    6  A    between atoms: O_15  and  C_16
REMARK    7  A    between atoms: C_16  and  C_17
REMARK    8  A    between atoms: N_19  and  C_20
REMARK    9  A    between atoms: C_20  and  C_21
REMARK                            x       y       z     vdW  Elec       q    Type
REMARK                         _______ _______ _______ _____ _____    ______ ____
ROOT
ATOM      1  C   UNL     1      21.968   9.467  20.473  0.00  0.00    +0.074 A 
ATOM      2  C   UNL     1      21.905  10.574  19.614  0.00  0.00    +0.023 A 
ATOM      3  C   UNL     1      20.926  11.579  19.760  0.00  0.00    -0.002 A 
ATOM      4  C   UNL     1      20.007  11.455  20.828  0.00  0.00    +0.127 A 
ATOM      5  C   UNL     1      20.061  10.354  21.686  0.00  0.00    +0.085 A 
ATOM      6  C   UNL     1      21.034   9.374  21.501  0.00  0.00    +0.139 A 
ATOM      7  F   UNL     1      21.042   8.334  22.348  0.00  0.00    -0.205 F 
ENDROOT
BRANCH   1   9
ATOM      8  N   UNL     1      24.351   8.935  20.203  0.00  0.00    -0.186 N 
ATOM      9  C   UNL     1      23.037   8.459  20.250  0.00  0.00    +0.266 C 
ATOM     10  O   UNL     1      22.763   7.273  20.151  0.00  0.00    -0.269 OA
ATOM     11  H   UNL     1      24.572   9.917  20.359  0.00  0.00    +0.176 HD
BRANCH   8  13
ATOM     12  C   UNL     1      26.006   7.064  21.221  0.00  0.00    +0.218 C 
ATOM     13  S   UNL     1      25.676   8.038  19.767  0.00  0.00    +0.043 S 
ATOM     14  O   UNL     1      25.319   7.173  18.666  0.00  0.00    -0.155 OA
ATOM     15  O   UNL     1      26.749   9.002  19.632  0.00  0.00    -0.155 OA
ENDBRANCH   8  13
ENDBRANCH   1   9
BRANCH   3  16
ATOM     16  C   UNL     1      20.904  12.766  18.817  0.00  0.00    +0.023 C 
ATOM     17  C   UNL     1      21.216  12.590  17.347  0.00  0.00    +0.009 C 
ATOM     18  C   UNL     1      19.811  12.882  17.778  0.00  0.00    +0.009 C 
ENDBRANCH   3  16
BRANCH   4  19
ATOM     19  O   UNL     1      19.108  12.484  20.945  0.00  0.00    -0.491 OA
BRANCH  19  20
ATOM     20  C   UNL     1      18.870  13.031  22.242  0.00  0.00    +0.235 C 
BRANCH  20  21
ATOM     21  C   UNL     1      19.553  14.385  22.295  0.00  0.00    +0.055 C 
ATOM     22  C   UNL     1      20.951  14.420  22.941  0.00  0.00    +0.092 C 
ATOM     23  N   UNL     1      20.551  15.609  23.726  0.00  0.00    -0.297 NA
ATOM     24  C   UNL     1      19.129  15.325  23.440  0.00  0.00    +0.092 C 
BRANCH  23  25
ATOM     25  C   UNL     1      20.969  16.856  23.062  0.00  0.00    +0.119 C 
BRANCH  25  26
ATOM     26  C   UNL     1      21.551  17.864  24.032  0.00  0.00    -0.033 A 
ATOM     27  C   UNL     1      20.898  18.153  25.240  0.00  0.00    +0.005 A 
ATOM     28  C   UNL     1      21.446  19.069  26.140  0.00  0.00    +0.000 A 
ATOM     29  C   UNL     1      22.652  19.703  25.847  0.00  0.00    +0.000 A 
ATOM     30  C   UNL     1      23.312  19.422  24.651  0.00  0.00    +0.000 A 
ATOM     31  C   UNL     1      22.766  18.507  23.750  0.00  0.00    +0.005 A 
ENDBRANCH  25  26
ENDBRANCH  23  25
ENDBRANCH  20  21
ENDBRANCH  19  20
ENDBRANCH   4  19
TORSDOF 8
ENDMDL
MODEL 2
REMARK VINA RESULT:    -6.954      4.725      6.318
REMARK INTER + INTRA:         -10.781
REMARK INTER:                  -9.951
REMARK INTRA:                  -0.829
REMARK UNBOUND:                -0.574
REMARK  Name = 
REMARK  9 active torsions:
REMARK  status: ('A' for Active; 'I' for Inactive)
REMARK    1  A    between atoms: C_1  and  S_2
REMARK    2  A    between atoms: S_2  and  N_5
REMARK    3  A    between atoms: C_6  and  C_8
REMARK    4  A    between atoms: C_10  and  C_11
REMARK    5  A    between atoms: C_14  and  O_15
REMARK    6  A    between atoms: O_15  and  C_16
REMARK    7  A    between atoms: C_16  and  C_17
REMARK    8  A    between atoms: N_19  and  C_20
REMARK    9  A    between atoms: C_20  and  C_21
REMARK                            x       y       z     vdW  Elec       q    Type
REMARK                         _______ _______ _______ _____ _____    ______ ____
ROOT
ATOM      1  C   UNL     1      21.693   6.723  21.241  0.00  0.00    +0.074 A 
ATOM      2  C   UNL     1      21.037   7.325  22.325  0.00  0.00    +0.023 A 
ATOM      3  C   UNL     1      20.775   8.710  22.363  0.00  0.00    -0.002 A 
ATOM      4  C   UNL     1      21.173   9.489  21.252  0.00  0.00    +0.127 A 
ATOM      5  C   UNL     1      21.829   8.897  20.170  0.00  0.00    +0.085 A 
ATOM      6  C   UNL     1      22.084   7.528  20.175  0.00  0.00    +0.139 A 
ATOM      7  F   UNL     1      22.721   7.008  19.115  0.00  0.00    -0.205 F 
ENDROOT
BRANCH   1   9
ATOM      8  N   UNL     1      20.800   4.437  21.115  0.00  0.00    -0.186 N 
ATOM      9  C   UNL     1      21.923   5.255  21.280  0.00  0.00    +0.266 C 
ATOM     10  O   UNL     1      23.051   4.805  21.415  0.00  0.00    -0.269 OA
ATOM     11  H   UNL     1      19.877   4.825  20.930  0.00  0.00    +0.176 HD
BRANCH   8  13
ATOM     12  C   UNL     1      19.040   2.414  21.408  0.00  0.00    +0.218 C 
ATOM     13  S   UNL     1      20.779   2.793  21.322  0.00  0.00    +0.043 S 
ATOM     14  O   UNL     1      21.363   2.162  20.161  0.00  0.00    -0.155 OA
ATOM     15  O   UNL     1      21.340   2.577  22.641  0.00  0.00    -0.155 OA
ENDBRANCH   8  13
ENDBRANCH   1   9
BRANCH   3  16
ATOM     16  C   UNL     1      20.050   9.316  23.549  0.00  0.00    +0.023 C 
ATOM     17  C   UNL     1      18.618   8.937  23.855  0.00  0.00    +0.009 C 
ATOM     18  C   UNL     1      19.719   8.457  24.749  0.00  0.00    +0.009 C 
ENDBRANCH   3  16
BRANCH   4  19
ATOM     19  O   UNL     1      20.852  10.820  21.329  0.00  0.00    -0.491 OA
BRANCH  19  20
ATOM     20  C   UNL     1      19.777  11.305  20.525  0.00  0.00    +0.235 C 
BRANCH  20  21
ATOM     21  C   UNL     1      20.189  12.663  19.987  0.00  0.00    +0.055 C 
ATOM     22  C   UNL     1      19.066  13.525  19.379  0.00  0.00    +0.092 C 
ATOM     23  N   UNL     1      19.932  13.818  18.215  0.00  0.00    -0.297 NA
ATOM     24  C   UNL     1      20.811  12.686  18.578  0.00  0.00    +0.092 C 
BRANCH  23  25
ATOM     25  C   UNL     1      20.645  15.096  18.384  0.00  0.00    +0.119 C 
BRANCH  25  26
ATOM     26  C   UNL     1      20.463  16.024  17.200  0.00  0.00    -0.033 A 
ATOM     27  C   UNL     1      19.329  16.846  17.103  0.00  0.00    +0.005 A 
ATOM     28  C   UNL     1      19.174  17.714  16.021  0.00  0.00    +0.000 A 
ATOM     29  C   UNL     1      20.147  17.773  15.026  0.00  0.00    +0.000 A 
ATOM     30  C   UNL     1      21.279  16.964  15.111  0.00  0.00    +0.000 A 
ATOM     31  C   UNL     1      21.437  16.096  16.193  0.00  0.00    +0.005 A 
ENDBRANCH  25  26
ENDBRANCH  23  25
ENDBRANCH  20  21
ENDBRANCH  19  20
ENDBRANCH   4  19
TORSDOF 8
ENDMDL
MODEL 3
REMARK VINA RESULT:    -6.782      1.498      2.837
REMARK INTER + INTRA:         -10.527
REMARK INTER:                  -9.668
REMARK INTRA:                  -0.859
REMARK UNBOUND:                -0.574
REMARK  Name = 
REMARK  9 active torsions:
REMARK  status: ('A' for Active; 'I' for Inactive)
REMARK    1  A    between atoms: C_1  and  S_2
REMARK    2  A    between atoms: S_2  and  N_5
REMARK    3  A    between atoms: C_6  and  C_8
REMARK    4  A    between atoms: C_10  and  C_11
REMARK    5  A    between atoms: C_14  and  O_15
REMARK    6  A    between atoms: O_15  and  C_16
REMARK    7  A    between atoms: C_16  and  C_17
REMARK    8  A    between atoms: N_19  and  C_20
REMARK    9  A    between atoms: C_20  and  C_21
REMARK                            x       y       z     vdW  Elec       q    Type
REMARK                         _______ _______ _______ _____ _____    ______ ____
ROOT
ATOM      1  C   UNL     1      21.467   9.335  20.646  0.00  0.00    +0.074 A 
ATOM      2  C   UNL     1      20.818   9.353  21.889  0.00  0.00    +0.023 A 
ATOM      3  C   UNL     1      20.153  10.501  22.368  0.00  0.00    -0.002 A 
ATOM      4  C   UNL     1      20.133  11.647  21.540  0.00  0.00    +0.127 A 
ATOM      5  C   UNL     1      20.779  11.638  20.301  0.00  0.00    +0.085 A 
ATOM      6  C   UNL     1      21.439  10.489  19.869  0.00  0.00    +0.139 A 
ATOM      7  F   UNL     1      22.049  10.533  18.674  0.00  0.00    -0.205 F 
ENDROOT
BRANCH   1   9
ATOM      8  N   UNL     1      23.531   8.123  20.094  0.00  0.00    -0.186 N 
ATOM      9  C   UNL     1      22.139   8.081  20.217  0.00  0.00    +0.266 C 
ATOM     10  O   UNL     1      21.491   7.064  20.020  0.00  0.00    -0.269 OA
ATOM     11  H   UNL     1      24.065   8.957  20.332  0.00  0.00    +0.176 HD
BRANCH   8  13
ATOM     12  C   UNL     1      24.556   5.715  20.750  0.00  0.00    +0.218 C 
ATOM     13  S   UNL     1      24.468   6.921  19.442  0.00  0.00    +0.043 S 
ATOM     14  O   UNL     1      23.786   6.358  18.299  0.00  0.00    -0.155 OA
ATOM     15  O   UNL     1      25.784   7.510  19.301  0.00  0.00    -0.155 OA
ENDBRANCH   8  13
ENDBRANCH   1   9
BRANCH   3  16
ATOM     16  C   UNL     1      19.452  10.471  23.712  0.00  0.00    +0.023 C 
ATOM     17  C   UNL     1      18.014  10.013  23.823  0.00  0.00    +0.009 C 
ATOM     18  C   UNL     1      19.112   9.145  24.355  0.00  0.00    +0.009 C 
ENDBRANCH   3  16
BRANCH   4  19
ATOM     19  O   UNL     1      19.433  12.715  22.040  0.00  0.00    -0.491 OA
BRANCH  19  20
ATOM     20  C   UNL     1      18.911  13.673  21.120  0.00  0.00    +0.235 C 
BRANCH  20  21
ATOM     21  C   UNL     1      19.367  15.044  21.584  0.00  0.00    +0.055 C 
ATOM     22  C   UNL     1      20.889  15.275  21.636  0.00  0.00    +0.092 C 
ATOM     23  N   UNL     1      20.745  15.874  22.982  0.00  0.00    -0.297 NA
ATOM     24  C   UNL     1      19.397  15.280  23.107  0.00  0.00    +0.092 C 
BRANCH  23  25
ATOM     25  C   UNL     1      20.655  17.343  22.910  0.00  0.00    +0.119 C 
BRANCH  25  26
ATOM     26  C   UNL     1      21.407  18.027  24.033  0.00  0.00    -0.033 A 
ATOM     27  C   UNL     1      22.693  18.546  23.820  0.00  0.00    +0.005 A 
ATOM     28  C   UNL     1      23.376  19.193  24.852  0.00  0.00    +0.000 A 
ATOM     29  C   UNL     1      22.783  19.330  26.105  0.00  0.00    +0.000 A 
ATOM     30  C   UNL     1      21.505  18.821  26.329  0.00  0.00    +0.000 A 
ATOM     31  C   UNL     1      20.820  18.175  25.299  0.00  0.00    +0.005 A 
ENDBRANCH  25  26
ENDBRANCH  23  25
ENDBRANCH  20  21
ENDBRANCH  19  20
ENDBRANCH   4  19
TORSDOF 8
ENDMDL
MODEL 4
REMARK VINA RESULT:    -6.763      3.582      5.115
REMARK INTER + INTRA:         -10.500
REMARK INTER:                  -9.823
REMARK INTRA:                  -0.677
REMARK UNBOUND:                -0.574
REMARK  Name = 
REMARK  9 active torsions:
REMARK  status: ('A' for Active; 'I' for Inactive)
REMARK    1  A    between atoms: C_1  and  S_2
REMARK    2  A    between atoms: S_2  and  N_5
REMARK    3  A    between atoms: C_6  and  C_8
REMARK    4  A    between atoms: C_10  and  C_11
REMARK    5  A    between atoms: C_14  and  O_15
REMARK    6  A    between atoms: O_15  and  C_16
REMARK    7  A    between atoms: C_16  and  C_17
REMARK    8  A    between atoms: N_19  and  C_20
REMARK    9  A    between atoms: C_20  and  C_21
REMARK                            x       y       z     vdW  Elec       q    Type
REMARK                         _______ _______ _______ _____ _____    ______ ____
ROOT
ATOM      1  C   UNL     1      21.497   9.418  20.512  0.00  0.00    +0.074 A 
ATOM      2  C   UNL     1      21.526  10.448  19.560  0.00  0.00    +0.023 A 
ATOM      3  C   UNL     1      20.935  11.706  19.802  0.00  0.00    -0.002 A 
ATOM      4  C   UNL     1      20.323  11.918  21.059  0.00  0.00    +0.127 A 
ATOM      5  C   UNL     1      20.287  10.896  22.011  0.00  0.00    +0.085 A 
ATOM      6  C   UNL     1      20.869   9.661  21.730  0.00  0.00    +0.139 A 
ATOM      7  F   UNL     1      20.804   8.712  22.675  0.00  0.00    -0.205 F 
ENDROOT
BRANCH   1   9
ATOM      8  N   UNL     1      23.545   8.133  20.081  0.00  0.00    -0.186 N 
ATOM      9  C   UNL     1      22.150   8.126  20.176  0.00  0.00    +0.266 C 
ATOM     10  O   UNL     1      21.485   7.112  20.030  0.00  0.00    -0.269 OA
ATOM     11  H   UNL     1      24.092   8.969  20.277  0.00  0.00    +0.176 HD
BRANCH   8  13
ATOM     12  C   UNL     1      24.474   5.734  20.895  0.00  0.00    +0.218 C 
ATOM     13  S   UNL     1      24.469   6.873  19.526  0.00  0.00    +0.043 S 
ATOM     14  O   UNL     1      23.813   6.272  18.387  0.00  0.00    -0.155 OA
ATOM     15  O   UNL     1      25.807   7.418  19.404  0.00  0.00    -0.155 OA
ENDBRANCH   8  13
ENDBRANCH   1   9
BRANCH   3  16
ATOM     16  C   UNL     1      21.003  12.795  18.750  0.00  0.00    +0.023 C 
ATOM     17  C   UNL     1      21.520  12.495  17.360  0.00  0.00    +0.009 C 
ATOM     18  C   UNL     1      20.061  12.760  17.568  0.00  0.00    +0.009 C 
ENDBRANCH   3  16
BRANCH   4  19
ATOM     19  O   UNL     1      19.805  13.173  21.251  0.00  0.00    -0.491 OA
BRANCH  19  20
ATOM     20  C   UNL     1      18.435  13.289  21.632  0.00  0.00    +0.235 C 
BRANCH  20  21
ATOM     21  C   UNL     1      17.818  14.381  20.777  0.00  0.00    +0.055 C 
ATOM     22  C   UNL     1      17.293  13.950  19.395  0.00  0.00    +0.092 C 
ATOM     23  N   UNL     1      17.968  15.117  18.782  0.00  0.00    -0.297 NA
ATOM     24  C   UNL     1      18.796  15.280  19.996  0.00  0.00    +0.092 C 
BRANCH  23  25
ATOM     25  C   UNL     1      17.044  16.255  18.635  0.00  0.00    +0.119 C 
BRANCH  25  26
ATOM     26  C   UNL     1      17.122  16.893  17.263  0.00  0.00    -0.033 A 
ATOM     27  C   UNL     1      15.964  17.065  16.488  0.00  0.00    +0.005 A 
ATOM     28  C   UNL     1      16.036  17.670  15.232  0.00  0.00    +0.000 A 
ATOM     29  C   UNL     1      17.261  18.110  14.736  0.00  0.00    +0.000 A 
ATOM     30  C   UNL     1      18.418  17.947  15.497  0.00  0.00    +0.000 A 
ATOM     31  C   UNL     1      18.349  17.343  16.753  0.00  0.00    +0.005 A 
ENDBRANCH  25  26
ENDBRANCH  23  25
ENDBRANCH  20  21
ENDBRANCH  19  20
ENDBRANCH   4  19
TORSDOF 8
ENDMDL
MODEL 5
REMARK VINA RESULT:    -6.745      4.872      7.190
REMARK INTER + INTRA:         -10.473
REMARK INTER:                  -9.580
REMARK INTRA:                  -0.893
REMARK UNBOUND:                -0.574
REMARK  Name = 
REMARK  9 active torsions:
REMARK  status: ('A' for Active; 'I' for Inactive)
REMARK    1  A    between atoms: C_1  and  S_2
REMARK    2  A    between atoms: S_2  and  N_5
REMARK    3  A    between atoms: C_6  and  C_8
REMARK    4  A    between atoms: C_10  and  C_11
REMARK    5  A    between atoms: C_14  and  O_15
REMARK    6  A    between atoms: O_15  and  C_16
REMARK    7  A    between atoms: C_16  and  C_17
REMARK    8  A    between atoms: N_19  and  C_20
REMARK    9  A    between atoms: C_20  and  C_21
REMARK                            x       y       z     vdW  Elec       q    Type
REMARK                         _______ _______ _______ _____ _____    ______ ____
ROOT
ATOM      1  C   UNL     1      21.248   4.350  21.972  0.00  0.00    +0.074 A 
ATOM      2  C   UNL     1      22.542   4.834  21.726  0.00  0.00    +0.023 A 
ATOM      3  C   UNL     1      22.784   6.184  21.399  0.00  0.00    -0.002 A 
ATOM      4  C   UNL     1      21.677   7.061  21.347  0.00  0.00    +0.127 A 
ATOM      5  C   UNL     1      20.385   6.586  21.587  0.00  0.00    +0.085 A 
ATOM      6  C   UNL     1      20.183   5.242  21.893  0.00  0.00    +0.139 A 
ATOM      7  F   UNL     1      18.923   4.835  22.111  0.00  0.00    -0.205 F 
ENDROOT
BRANCH   1   9
ATOM      8  N   UNL     1      20.870   2.611  23.665  0.00  0.00    -0.186 N 
ATOM      9  C   UNL     1      21.083   2.914  22.317  0.00  0.00    +0.266 C 
ATOM     10  O   UNL     1      21.101   2.058  21.445  0.00  0.00    -0.269 OA
ATOM     11  H   UNL     1      20.785   3.340  24.371  0.00  0.00    +0.176 HD
BRANCH   8  13
ATOM     12  C   UNL     1      20.801   1.382  26.066  0.00  0.00    +0.218 C 
ATOM     13  S   UNL     1      20.862   1.084  24.310  0.00  0.00    +0.043 S 
ATOM     14  O   UNL     1      19.663   0.398  23.886  0.00  0.00    -0.155 OA
ATOM     15  O   UNL     1      22.170   0.543  24.003  0.00  0.00    -0.155 OA
ENDBRANCH   8  13
ENDBRANCH   1   9
BRANCH   3  16
ATOM     16  C   UNL     1      24.201   6.666  21.155  0.00  0.00    +0.023 C 
ATOM     17  C   UNL     1      25.056   7.161  22.302  0.00  0.00    +0.009 C 
ATOM     18  C   UNL     1      25.371   5.848  21.653  0.00  0.00    +0.009 C 
ENDBRANCH   3  16
BRANCH   4  19
ATOM     19  O   UNL     1      21.981   8.369  21.067  0.00  0.00    -0.491 OA
BRANCH  19  20
ATOM     20  C   UNL     1      21.130   9.389  21.589  0.00  0.00    +0.235 C 
BRANCH  20  21
ATOM     21  C   UNL     1      20.691  10.254  20.421  0.00  0.00    +0.055 C 
ATOM     22  C   UNL     1      21.808  10.995  19.663  0.00  0.00    +0.092 C 
ATOM     23  N   UNL     1      21.003  12.236  19.703  0.00  0.00    -0.297 NA
ATOM     24  C   UNL     1      20.156  11.657  20.768  0.00  0.00    +0.092 C 
BRANCH  23  25
ATOM     25  C   UNL     1      20.224  12.411  18.465  0.00  0.00    +0.119 C 
BRANCH  25  26
ATOM     26  C   UNL     1      20.126  13.862  18.041  0.00  0.00    -0.033 A 
ATOM     27  C   UNL     1      20.996  14.383  17.070  0.00  0.00    +0.005 A 
ATOM     28  C   UNL     1      20.891  15.716  16.667  0.00  0.00    +0.000 A 
ATOM     29  C   UNL     1      19.917  16.542  17.226  0.00  0.00    +0.000 A 
ATOM     30  C   UNL     1      19.045  16.035  18.189  0.00  0.00    +0.000 A 
ATOM     31  C   UNL     1      19.148  14.703  18.592  0.00  0.00    +0.005 A 
ENDBRANCH  25  26
ENDBRANCH  23  25
ENDBRANCH  20  21
ENDBRANCH  19  20
ENDBRANCH   4  19
TORSDOF 8
ENDMDL
MODEL 6
REMARK VINA RESULT:    -6.704      4.847     10.085
REMARK INTER + INTRA:         -10.412
REMARK INTER:                  -9.834
REMARK INTRA:                  -0.578
REMARK UNBOUND:                -0.574
REMARK  Name = 
REMARK  9 active torsions:
REMARK  status: ('A' for Active; 'I' for Inactive)
REMARK    1  A    between atoms: C_1  and  S_2
REMARK    2  A    between atoms: S_2  and  N_5
REMARK    3  A    between atoms: C_6  and  C_8
REMARK    4  A    between atoms: C_10  and  C_11
REMARK    5  A    between atoms: C_14  and  O_15
REMARK    6  A    between atoms: O_15  and  C_16
REMARK    7  A    between atoms: C_16  and  C_17
REMARK    8  A    between atoms: N_19  and  C_20
REMARK    9  A    between atoms: C_20  and  C_21
REMARK                            x       y       z     vdW  Elec       q    Type
REMARK                         _______ _______ _______ _____ _____    ______ ____
ROOT
ATOM      1  C   UNL     1      20.410  14.360  18.315  0.00  0.00    +0.074 A 
ATOM      2  C   UNL     1      20.287  14.329  19.712  0.00  0.00    +0.023 A 
ATOM      3  C   UNL     1      20.528  13.156  20.457  0.00  0.00    -0.002 A 
ATOM      4  C   UNL     1      20.929  11.997  19.753  0.00  0.00    +0.127 A 
ATOM      5  C   UNL     1      21.050  12.019  18.362  0.00  0.00    +0.085 A 
ATOM      6  C   UNL     1      20.789  13.193  17.658  0.00  0.00    +0.139 A 
ATOM      7  F   UNL     1      20.915  13.161  16.323  0.00  0.00    -0.205 F 
ENDROOT
BRANCH   1   9
ATOM      8  N   UNL     1      21.215  16.214  16.918  0.00  0.00    -0.186 N 
ATOM      9  C   UNL     1      20.143  15.641  17.610  0.00  0.00    +0.266 C 
ATOM     10  O   UNL     1      19.025  16.134  17.616  0.00  0.00    -0.269 OA
ATOM     11  H   UNL     1      22.122  15.755  16.861  0.00  0.00    +0.176 HD
BRANCH   8  13
ATOM     12  C   UNL     1      20.054  17.563  14.890  0.00  0.00    +0.218 C 
ATOM     13  S   UNL     1      21.211  17.724  16.235  0.00  0.00    +0.043 S 
ATOM     14  O   UNL     1      20.714  18.678  17.200  0.00  0.00    -0.155 OA
ATOM     15  O   UNL     1      22.533  17.876  15.661  0.00  0.00    -0.155 OA
ENDBRANCH   8  13
ENDBRANCH   1   9
BRANCH   3  16
ATOM     16  C   UNL     1      20.398  13.172  21.968  0.00  0.00    +0.023 C 
ATOM     17  C   UNL     1      21.223  14.125  22.804  0.00  0.00    +0.009 C 
ATOM     18  C   UNL     1      19.751  14.353  22.655  0.00  0.00    +0.009 C 
ENDBRANCH   3  16
BRANCH   4  19
ATOM     19  O   UNL     1      21.191  10.901  20.536  0.00  0.00    -0.491 OA
BRANCH  19  20
ATOM     20  C   UNL     1      22.020   9.870  20.001  0.00  0.00    +0.235 C 
BRANCH  20  21
ATOM     21  C   UNL     1      21.743   8.607  20.797  0.00  0.00    +0.055 C 
ATOM     22  C   UNL     1      22.548   7.357  20.394  0.00  0.00    +0.092 C 
ATOM     23  N   UNL     1      21.304   6.555  20.423  0.00  0.00    -0.297 NA
ATOM     24  C   UNL     1      20.499   7.795  20.387  0.00  0.00    +0.092 C 
BRANCH  23  25
ATOM     25  C   UNL     1      21.136   5.872  21.718  0.00  0.00    +0.119 C 
BRANCH  25  26
ATOM     26  C   UNL     1      20.638   4.449  21.563  0.00  0.00    -0.033 A 
ATOM     27  C   UNL     1      19.348   4.093  21.987  0.00  0.00    +0.005 A 
ATOM     28  C   UNL     1      18.885   2.786  21.826  0.00  0.00    +0.000 A 
ATOM     29  C   UNL     1      19.702   1.822  21.240  0.00  0.00    +0.000 A 
ATOM     30  C   UNL     1      20.984   2.163  20.812  0.00  0.00    +0.000 A 
ATOM     31  C   UNL     1      21.449   3.469  20.971  0.00  0.00    +0.005 A 
ENDBRANCH  25  26
ENDBRANCH  23  25
ENDBRANCH  20  21
ENDBRANCH  19  20
ENDBRANCH   4  19
TORSDOF 8
ENDMDL
MODEL 7
REMARK VINA RESULT:    -6.650      5.495     10.398
REMARK INTER + INTRA:         -10.334
REMARK INTER:                  -9.383
REMARK INTRA:                  -0.951
REMARK UNBOUND:                -0.574
REMARK  Name = 
REMARK  9 active torsions:
REMARK  status: ('A' for Active; 'I' for Inactive)
REMARK    1  A    between atoms: C_1  and  S_2
REMARK    2  A    between atoms: S_2  and  N_5
REMARK    3  A    between atoms: C_6  and  C_8
REMARK    4  A    between atoms: C_10  and  C_11
REMARK    5  A    between atoms: C_14  and  O_15
REMARK    6  A    between atoms: O_15  and  C_16
REMARK    7  A    between atoms: C_16  and  C_17
REMARK    8  A    between atoms: N_19  and  C_20
REMARK    9  A    between atoms: C_20  and  C_21
REMARK                            x       y       z     vdW  Elec       q    Type
REMARK                         _______ _______ _______ _____ _____    ______ ____
ROOT
ATOM      1  C   UNL     1      20.907   9.480  20.878  0.00  0.00    +0.074 A 
ATOM      2  C   UNL     1      22.258   9.117  20.779  0.00  0.00    +0.023 A 
ATOM      3  C   UNL     1      22.711   7.826  21.122  0.00  0.00    -0.002 A 
ATOM      4  C   UNL     1      21.751   6.881  21.552  0.00  0.00    +0.127 A 
ATOM      5  C   UNL     1      20.404   7.236  21.656  0.00  0.00    +0.085 A 
ATOM      6  C   UNL     1      19.996   8.526  21.322  0.00  0.00    +0.139 A 
ATOM      7  F   UNL     1      18.693   8.819  21.443  0.00  0.00    -0.205 F 
ENDROOT
BRANCH   1   9
ATOM      8  N   UNL     1      20.791  11.246  19.174  0.00  0.00    -0.186 N 
ATOM      9  C   UNL     1      20.515  10.860  20.489  0.00  0.00    +0.266 C 
ATOM     10  O   UNL     1      19.949  11.594  21.285  0.00  0.00    -0.269 OA
ATOM     11  H   UNL     1      21.198  10.600  18.500  0.00  0.00    +0.176 HD
BRANCH   8  13
ATOM     12  C   UNL     1      18.869  12.994  18.447  0.00  0.00    +0.218 C 
ATOM     13  S   UNL     1      20.634  12.784  18.577  0.00  0.00    +0.043 S 
ATOM     14  O   UNL     1      21.171  13.721  19.538  0.00  0.00    -0.155 OA
ATOM     15  O   UNL     1      21.167  12.719  17.232  0.00  0.00    -0.155 OA
ENDBRANCH   8  13
ENDBRANCH   1   9
BRANCH   3  16
ATOM     16  C   UNL     1      24.180   7.472  20.987  0.00  0.00    +0.023 C 
ATOM     17  C   UNL     1      24.751   7.046  19.652  0.00  0.00    +0.009 C 
ATOM     18  C   UNL     1      25.106   8.386  20.217  0.00  0.00    +0.009 C 
ENDBRANCH   3  16
BRANCH   4  19
ATOM     19  O   UNL     1      22.246   5.632  21.829  0.00  0.00    -0.491 OA
BRANCH  19  20
ATOM     20  C   UNL     1      21.882   4.554  20.969  0.00  0.00    +0.235 C 
BRANCH  20  21
ATOM     21  C   UNL     1      21.104   3.551  21.802  0.00  0.00    +0.055 C 
ATOM     22  C   UNL     1      19.580   3.762  21.876  0.00  0.00    +0.092 C 
ATOM     23  N   UNL     1      19.630   3.565  23.342  0.00  0.00    -0.297 NA
ATOM     24  C   UNL     1      21.092   3.784  23.325  0.00  0.00    +0.092 C 
BRANCH  23  25
ATOM     25  C   UNL     1      19.325   2.170  23.706  0.00  0.00    +0.119 C 
BRANCH  25  26
ATOM     26  C   UNL     1      18.488   2.069  24.966  0.00  0.00    -0.033 A 
ATOM     27  C   UNL     1      18.798   1.123  25.955  0.00  0.00    +0.005 A 
ATOM     28  C   UNL     1      18.037   1.044  27.123  0.00  0.00    +0.000 A 
ATOM     29  C   UNL     1      16.962   1.909  27.317  0.00  0.00    +0.000 A 
ATOM     30  C   UNL     1      16.646   2.856  26.344  0.00  0.00    +0.000 A 
ATOM     31  C   UNL     1      17.406   2.937  25.176  0.00  0.00    +0.005 A 
ENDBRANCH  25  26
ENDBRANCH  23  25
ENDBRANCH  20  21
ENDBRANCH  19  20
ENDBRANCH   4  19
TORSDOF 8
ENDMDL
MODEL 8
REMARK VINA RESULT:    -6.543      4.725      6.581
REMARK INTER + INTRA:         -10.177
REMARK INTER:                  -9.356
REMARK INTRA:                  -0.820
REMARK UNBOUND:                -0.574
REMARK  Name = 
REMARK  9 active torsions:
REMARK  status: ('A' for Active; 'I' for Inactive)
REMARK    1  A    between atoms: C_1  and  S_2
REMARK    2  A    between atoms: S_2  and  N_5
REMARK    3  A    between atoms: C_6  and  C_8
REMARK    4  A    between atoms: C_10  and  C_11
REMARK    5  A    between atoms: C_14  and  O_15
REMARK    6  A    between atoms: O_15  and  C_16
REMARK    7  A    between atoms: C_16  and  C_17
REMARK    8  A    between atoms: N_19  and  C_20
REMARK    9  A    between atoms: C_20  and  C_21
REMARK                            x       y       z     vdW  Elec       q    Type
REMARK                         _______ _______ _______ _____ _____    ______ ____
ROOT
ATOM      1  C   UNL     1      22.310   5.993  23.787  0.00  0.00    +0.074 A 
ATOM      2  C   UNL     1      23.046   6.227  22.616  0.00  0.00    +0.023 A 
ATOM      3  C   UNL     1      22.679   7.228  21.691  0.00  0.00    -0.002 A 
ATOM      4  C   UNL     1      21.547   8.021  21.989  0.00  0.00    +0.127 A 
ATOM      5  C   UNL     1      20.808   7.792  23.152  0.00  0.00    +0.085 A 
ATOM      6  C   UNL     1      21.191   6.784  24.034  0.00  0.00    +0.139 A 
ATOM      7  F   UNL     1      20.446   6.600  25.134  0.00  0.00    -0.205 F 
ENDROOT
BRANCH   1   9
ATOM      8  N   UNL     1      22.155   3.673  24.579  0.00  0.00    -0.186 N 
ATOM      9  C   UNL     1      22.770   4.922  24.709  0.00  0.00    +0.266 C 
ATOM     10  O   UNL     1      23.668   5.134  25.510  0.00  0.00    -0.269 OA
ATOM     11  H   UNL     1      21.459   3.490  23.858  0.00  0.00    +0.176 HD
BRANCH   8  13
ATOM     12  C   UNL     1      21.328   1.127  24.912  0.00  0.00    +0.218 C 
ATOM     13  S   UNL     1      22.356   2.398  25.619  0.00  0.00    +0.043 S 
ATOM     14  O   UNL     1      23.740   1.982  25.595  0.00  0.00    -0.155 OA
ATOM     15  O   UNL     1      21.735   2.826  26.857  0.00  0.00    -0.155 OA
ENDBRANCH   8  13
ENDBRANCH   1   9
BRANCH   3  16
ATOM     16  C   UNL     1      23.513   7.456  20.445  0.00  0.00    +0.023 C 
ATOM     17  C   UNL     1      24.543   8.563  20.397  0.00  0.00    +0.009 C 
ATOM     18  C   UNL     1      24.990   7.135  20.458  0.00  0.00    +0.009 C 
ENDBRANCH   3  16
BRANCH   4  19
ATOM     19  O   UNL     1      21.268   9.004  21.076  0.00  0.00    -0.491 OA
BRANCH  19  20
ATOM     20  C   UNL     1      20.816  10.269  21.559  0.00  0.00    +0.235 C 
BRANCH  20  21
ATOM     21  C   UNL     1      20.429  11.104  20.351  0.00  0.00    +0.055 C 
ATOM     22  C   UNL     1      21.549  11.390  19.333  0.00  0.00    +0.092 C 
ATOM     23  N   UNL     1      21.150  12.814  19.303  0.00  0.00    -0.297 NA
ATOM     24  C   UNL     1      20.386  12.631  20.556  0.00  0.00    +0.092 C 
BRANCH  23  25
ATOM     25  C   UNL     1      20.235  13.092  18.181  0.00  0.00    +0.119 C 
BRANCH  25  26
ATOM     26  C   UNL     1      20.277  14.542  17.743  0.00  0.00    -0.033 A 
ATOM     27  C   UNL     1      19.273  15.438  18.140  0.00  0.00    +0.005 A 
ATOM     28  C   UNL     1      19.324  16.778  17.750  0.00  0.00    +0.000 A 
ATOM     29  C   UNL     1      20.378  17.237  16.963  0.00  0.00    +0.000 A 
ATOM     30  C   UNL     1      21.383  16.358  16.564  0.00  0.00    +0.000 A 
ATOM     31  C   UNL     1      21.334  15.018  16.953  0.00  0.00    +0.005 A 
ENDBRANCH  25  26
ENDBRANCH  23  25
ENDBRANCH  20  21
ENDBRANCH  19  20
ENDBRANCH   4  19
TORSDOF 8
ENDMDL
