MODEL 1
REMARK VINA RESULT:    -5.248      0.000      0.000
REMARK INTER + INTRA:          -7.644
REMARK INTER:                  -6.935
REMARK INTRA:                  -0.709
REMARK UNBOUND:                -0.709
REMARK  Name = 
REMARK  9 active torsions:
REMARK  status: ('A' for Active; 'I' for Inactive)
REMARK    1  A    between atoms: C_1  and  C_2
REMARK    2  A    between atoms: C_5  and  C_6
REMARK    3  A    between atoms: C_9  and  C_10
REMARK    4  A    between atoms: C_13  and  C_14
REMARK    5  A    between atoms: N_16  and  C_17
REMARK    6  A    between atoms: C_20  and  O_21
REMARK    7  A    between atoms: C_22  and  N_23
REMARK    8  A    between atoms: N_26  and  C_27
REMARK    9  A    between atoms: C_33  and  C_34
REMARK                            x       y       z     vdW  Elec       q    Type
REMARK                         _______ _______ _______ _____ _____    ______ ____
ROOT
ATOM      1  C   UNL     1      -3.877  -0.928  -4.797  0.00  0.00    -0.018 A 
ATOM      2  C   UNL     1      -4.150  -2.168  -4.195  0.00  0.00    +0.009 A 
ATOM      3  C   UNL     1      -3.558  -2.521  -2.978  0.00  0.00    +0.013 A 
ATOM      4  C   UNL     1      -2.678  -1.634  -2.350  0.00  0.00    +0.037 A 
ATOM      5  C   UNL     1      -2.410  -0.390  -2.929  0.00  0.00    +0.013 A 
ATOM      6  C   UNL     1      -2.999  -0.046  -4.149  0.00  0.00    +0.009 A 
ENDROOT
BRANCH   1  10
ATOM      7  C   UNL     1      -5.787   0.164  -8.506  0.00  0.00    +0.039 A 
ATOM      8  C   UNL     1      -6.131   0.778  -7.297  0.00  0.00    +0.014 A 
ATOM      9  C   UNL     1      -5.496   0.415  -6.107  0.00  0.00    +0.009 A 
ATOM     10  C   UNL     1      -4.490  -0.567  -6.085  0.00  0.00    -0.015 A 
ATOM     11  C   UNL     1      -4.114  -1.172  -7.304  0.00  0.00    -0.042 A 
ATOM     12  C   UNL     1      -3.040  -2.227  -7.373  0.00  0.00    +0.044 C 
ATOM     13  C   UNL     1      -4.778  -0.811  -8.494  0.00  0.00    +0.017 A 
BRANCH   7  18
ATOM     14  C   UNL     1      -8.499   2.929 -11.361  0.00  0.00    +0.111 C 
ATOM     15  C   UNL     1      -7.671   1.769 -10.997  0.00  0.00    +0.215 A 
ATOM     16  N   UNL     1      -7.308   0.734 -11.722  0.00  0.00    -0.112 NA
ATOM     17  N   UNL     1      -6.530  -0.058 -10.901  0.00  0.00    -0.107 NA
ATOM     18  C   UNL     1      -6.475   0.550  -9.731  0.00  0.00    +0.248 A 
ATOM     19  O   UNL     1      -7.183   1.727  -9.719  0.00  0.00    -0.421 OA
ENDBRANCH   7  18
ENDBRANCH   1  10
BRANCH   4  20
ATOM     20  C   UNL     1      -2.027  -1.973  -1.056  0.00  0.00    +0.248 C 
ATOM     21  O   UNL     1      -1.744  -3.144  -0.843  0.00  0.00    -0.270 OA
ATOM     22  N   UNL     1      -1.862  -0.898  -0.201  0.00  0.00    -0.281 N 
ATOM     23  H   UNL     1      -2.308  -0.030  -0.470  0.00  0.00    +0.155 HD
BRANCH  22  24
ATOM     24  C   UNL     1      -1.248  -0.905   1.070  0.00  0.00    +0.036 A 
ATOM     25  C   UNL     1      -1.172   0.311   1.749  0.00  0.00    +0.027 A 
ATOM     26  C   UNL     1      -0.585   0.375   3.010  0.00  0.00    +0.049 A 
ATOM     27  C   UNL     1      -0.059  -0.781   3.595  0.00  0.00    +0.138 A 
ATOM     28  C   UNL     1      -0.086  -2.032   2.939  0.00  0.00    +0.074 A 
ATOM     29  C   UNL     1      -0.705  -2.049   1.669  0.00  0.00    +0.050 A 
BRANCH  28  30
ATOM     30  N   UNL     1       0.438  -3.198   3.486  0.00  0.00    -0.325 N 
ATOM     31  C   UNL     1      -0.427  -4.167   4.180  0.00  0.00    +0.120 C 
ATOM     32  C   UNL     1       0.330  -4.872   5.333  0.00  0.00    +0.103 C 
ATOM     33  N   UNL     1       1.595  -5.543   4.964  0.00  0.00    -0.302 NA
ATOM     34  C   UNL     1       1.408  -6.974   4.743  0.00  0.00    +0.105 C 
ATOM     35  C   UNL     1       2.206  -4.911   3.772  0.00  0.00    +0.103 C 
ATOM     36  C   UNL     1       1.890  -3.406   3.622  0.00  0.00    +0.120 C 
ENDBRANCH  28  30
BRANCH  27  37
ATOM     37  O   UNL     1       0.465  -0.673   4.862  0.00  0.00    -0.505 OA
ATOM     38  H   UNL     1      -0.248  -0.798   5.506  0.00  0.00    +0.292 HD
ENDBRANCH  27  37
ENDBRANCH  22  24
ENDBRANCH   4  20
TORSDOF 6
ENDMDL
MODEL 2
REMARK VINA RESULT:    -4.656      2.085     13.394
REMARK INTER + INTRA:          -6.861
REMARK INTER:                  -6.139
REMARK INTRA:                  -0.723
REMARK UNBOUND:                -0.709
REMARK  Name = 
REMARK  9 active torsions:
REMARK  status: ('A' for Active; 'I' for Inactive)
REMARK    1  A    between atoms: C_1  and  C_2
REMARK    2  A    between atoms: C_5  and  C_6
REMARK    3  A    between atoms: C_9  and  C_10
REMARK    4  A    between atoms: C_13  and  C_14
REMARK    5  A    between atoms: N_16  and  C_17
REMARK    6  A    between atoms: C_20  and  O_21
REMARK    7  A    between atoms: C_22  and  N_23
REMARK    8  A    between atoms: N_26  and  C_27
REMARK    9  A    between atoms: C_33  and  C_34
REMARK                            x       y       z     vdW  Elec       q    Type
REMARK                         _______ _______ _______ _____ _____    ______ ____
ROOT
ATOM      1  C   UNL     1      -2.362  -1.800  -2.285  0.00  0.00    -0.018 A 
ATOM      2  C   UNL     1      -3.670  -2.247  -2.539  0.00  0.00    +0.009 A 
ATOM      3  C   UNL     1      -4.218  -2.171  -3.823  0.00  0.00    +0.013 A 
ATOM      4  C   UNL     1      -3.460  -1.640  -4.872  0.00  0.00    +0.037 A 
ATOM      5  C   UNL     1      -2.152  -1.206  -4.637  0.00  0.00    +0.013 A 
ATOM      6  C   UNL     1      -1.613  -1.278  -3.350  0.00  0.00    +0.009 A 
ENDROOT
BRANCH   1  10
ATOM      7  C   UNL     1      -0.767  -2.116   1.709  0.00  0.00    +0.039 A 
ATOM      8  C   UNL     1      -1.090  -3.251   0.958  0.00  0.00    +0.014 A 
ATOM      9  C   UNL     1      -1.599  -3.128  -0.337  0.00  0.00    +0.009 A 
ATOM     10  C   UNL     1      -1.796  -1.868  -0.928  0.00  0.00    -0.015 A 
ATOM     11  C   UNL     1      -1.445  -0.716  -0.191  0.00  0.00    -0.042 A 
ATOM     12  C   UNL     1      -1.614   0.672  -0.752  0.00  0.00    +0.044 C 
ATOM     13  C   UNL     1      -0.952  -0.854   1.122  0.00  0.00    +0.017 A 
BRANCH   7  18
ATOM     14  C   UNL     1       0.850  -4.486   5.571  0.00  0.00    +0.111 C 
ATOM     15  C   UNL     1       0.466  -3.313   4.771  0.00  0.00    +0.215 A 
ATOM     16  N   UNL     1       0.502  -2.036   5.080  0.00  0.00    -0.112 NA
ATOM     17  N   UNL     1       0.037  -1.358   3.971  0.00  0.00    -0.107 NA
ATOM     18  C   UNL     1      -0.251  -2.271   3.063  0.00  0.00    +0.248 A 
ATOM     19  O   UNL     1      -0.002  -3.547   3.506  0.00  0.00    -0.421 OA
ENDBRANCH   7  18
ENDBRANCH   1  10
BRANCH   4  20
ATOM     20  C   UNL     1      -4.007  -1.540  -6.252  0.00  0.00    +0.248 C 
ATOM     21  O   UNL     1      -4.931  -2.282  -6.560  0.00  0.00    -0.270 OA
ATOM     22  N   UNL     1      -3.353  -0.630  -7.062  0.00  0.00    -0.281 N 
ATOM     23  H   UNL     1      -2.502  -0.225  -6.694  0.00  0.00    +0.155 HD
BRANCH  22  24
ATOM     24  C   UNL     1      -3.667  -0.295  -8.397  0.00  0.00    +0.036 A 
ATOM     25  C   UNL     1      -2.730  -0.628  -9.375  0.00  0.00    +0.027 A 
ATOM     26  C   UNL     1      -2.978  -0.332 -10.713  0.00  0.00    +0.049 A 
ATOM     27  C   UNL     1      -4.165   0.312 -11.078  0.00  0.00    +0.138 A 
ATOM     28  C   UNL     1      -5.133   0.695 -10.123  0.00  0.00    +0.074 A 
ATOM     29  C   UNL     1      -4.844   0.360  -8.782  0.00  0.00    +0.050 A 
BRANCH  28  30
ATOM     30  N   UNL     1      -6.318   1.346 -10.449  0.00  0.00    -0.325 N 
ATOM     31  C   UNL     1      -7.191   0.844 -11.524  0.00  0.00    +0.120 C 
ATOM     32  C   UNL     1      -7.913   2.005 -12.251  0.00  0.00    +0.103 C 
ATOM     33  N   UNL     1      -8.696   2.921 -11.393  0.00  0.00    -0.302 NA
ATOM     34  C   UNL     1     -10.114   2.574 -11.378  0.00  0.00    +0.105 C 
ATOM     35  C   UNL     1      -8.155   2.951 -10.014  0.00  0.00    +0.103 C 
ATOM     36  C   UNL     1      -6.636   2.685  -9.924  0.00  0.00    +0.120 C 
ENDBRANCH  28  30
BRANCH  27  37
ATOM     37  O   UNL     1      -4.383   0.537 -12.416  0.00  0.00    -0.505 OA
ATOM     38  H   UNL     1      -5.292   0.851 -12.536  0.00  0.00    +0.292 HD
ENDBRANCH  27  37
ENDBRANCH  22  24
ENDBRANCH   4  20
TORSDOF 6
ENDMDL
MODEL 3
REMARK VINA RESULT:    -4.645      0.929      1.341
REMARK INTER + INTRA:          -6.847
REMARK INTER:                  -5.947
REMARK INTRA:                  -0.901
REMARK UNBOUND:                -0.709
REMARK  Name = 
REMARK  9 active torsions:
REMARK  status: ('A' for Active; 'I' for Inactive)
REMARK    1  A    between atoms: C_1  and  C_2
REMARK    2  A    between atoms: C_5  and  C_6
REMARK    3  A    between atoms: C_9  and  C_10
REMARK    4  A    between atoms: C_13  and  C_14
REMARK    5  A    between atoms: N_16  and  C_17
REMARK    6  A    between atoms: C_20  and  O_21
REMARK    7  A    between atoms: C_22  and  N_23
REMARK    8  A    between atoms: N_26  and  C_27
REMARK    9  A    between atoms: C_33  and  C_34
REMARK                            x       y       z     vdW  Elec       q    Type
REMARK                         _______ _______ _______ _____ _____    ______ ____
ROOT
ATOM      1  C   UNL     1      -3.423  -1.365  -5.002  0.00  0.00    -0.018 A 
ATOM      2  C   UNL     1      -3.253  -2.702  -4.603  0.00  0.00    +0.009 A 
ATOM      3  C   UNL     1      -2.746  -3.015  -3.338  0.00  0.00    +0.013 A 
ATOM      4  C   UNL     1      -2.399  -1.988  -2.455  0.00  0.00    +0.037 A 
ATOM      5  C   UNL     1      -2.579  -0.654  -2.832  0.00  0.00    +0.013 A 
ATOM      6  C   UNL     1      -3.078  -0.347  -4.100  0.00  0.00    +0.009 A 
ENDROOT
BRANCH   1  10
ATOM      7  C   UNL     1      -4.826  -0.352  -8.952  0.00  0.00    +0.039 A 
ATOM      8  C   UNL     1      -3.466  -0.540  -8.684  0.00  0.00    +0.014 A 
ATOM      9  C   UNL     1      -3.032  -0.874  -7.399  0.00  0.00    +0.009 A 
ATOM     10  C   UNL     1      -3.942  -1.041  -6.340  0.00  0.00    -0.015 A 
ATOM     11  C   UNL     1      -5.320  -0.883  -6.606  0.00  0.00    -0.042 A 
ATOM     12  C   UNL     1      -6.363  -1.053  -5.532  0.00  0.00    +0.044 C 
ATOM     13  C   UNL     1      -5.742  -0.526  -7.902  0.00  0.00    +0.017 A 
BRANCH   7  18
ATOM     14  C   UNL     1      -7.803   1.336 -12.335  0.00  0.00    +0.111 C 
ATOM     15  C   UNL     1      -6.562   0.756 -11.795  0.00  0.00    +0.215 A 
ATOM     16  N   UNL     1      -5.457   0.410 -12.416  0.00  0.00    -0.112 NA
ATOM     17  N   UNL     1      -4.604  -0.074 -11.444  0.00  0.00    -0.107 NA
ATOM     18  C   UNL     1      -5.252   0.010 -10.297  0.00  0.00    +0.248 A 
ATOM     19  O   UNL     1      -6.513   0.533 -10.446  0.00  0.00    -0.421 OA
ENDBRANCH   7  18
ENDBRANCH   1  10
BRANCH   4  20
ATOM     20  C   UNL     1      -1.856  -2.279  -1.101  0.00  0.00    +0.248 C 
ATOM     21  O   UNL     1      -1.648  -3.448  -0.803  0.00  0.00    -0.270 OA
ATOM     22  N   UNL     1      -1.695  -1.165  -0.298  0.00  0.00    -0.281 N 
ATOM     23  H   UNL     1      -2.076  -0.294  -0.646  0.00  0.00    +0.155 HD
BRANCH  22  24
ATOM     24  C   UNL     1      -1.171  -1.125   1.012  0.00  0.00    +0.036 A 
ATOM     25  C   UNL     1      -1.198   0.103   1.673  0.00  0.00    +0.027 A 
ATOM     26  C   UNL     1      -0.702   0.212   2.970  0.00  0.00    +0.049 A 
ATOM     27  C   UNL     1      -0.164  -0.909   3.610  0.00  0.00    +0.138 A 
ATOM     28  C   UNL     1      -0.088  -2.169   2.974  0.00  0.00    +0.074 A 
ATOM     29  C   UNL     1      -0.617  -2.233   1.666  0.00  0.00    +0.050 A 
BRANCH  28  30
ATOM     30  N   UNL     1       0.450  -3.301   3.576  0.00  0.00    -0.325 N 
ATOM     31  C   UNL     1      -0.395  -4.226   4.350  0.00  0.00    +0.120 C 
ATOM     32  C   UNL     1       0.393  -4.861   5.522  0.00  0.00    +0.103 C 
ATOM     33  N   UNL     1       1.648  -5.556   5.160  0.00  0.00    -0.302 NA
ATOM     34  C   UNL     1       1.454  -6.997   5.029  0.00  0.00    +0.105 C 
ATOM     35  C   UNL     1       2.225  -4.996   3.916  0.00  0.00    +0.103 C 
ATOM     36  C   UNL     1       1.905  -3.503   3.684  0.00  0.00    +0.120 C 
ENDBRANCH  28  30
BRANCH  27  37
ATOM     37  O   UNL     1       0.265  -0.759   4.907  0.00  0.00    -0.505 OA
ATOM     38  H   UNL     1       0.842   0.018   4.957  0.00  0.00    +0.292 HD
ENDBRANCH  27  37
ENDBRANCH  22  24
ENDBRANCH   4  20
TORSDOF 6
ENDMDL
