MODEL 1
REMARK VINA RESULT:    -5.775      0.000      0.000
REMARK INTER + INTRA:          -5.944
REMARK INTER:                  -5.944
REMARK INTRA:                   0.000
REMARK UNBOUND:                 0.000
REMARK  Name = 
REMARK  2 active torsions:
REMARK  status: ('A' for Active; 'I' for Inactive)
REMARK    1  A    between atoms: C_1  and  N_2
REMARK    2  A    between atoms: C_16  and  N_17
REMARK                            x       y       z     vdW  Elec       q    Type
REMARK                         _______ _______ _______ _____ _____    ______ ____
ROOT
ATOM      1  C   UNL     1      38.596   5.578 -43.554  0.00  0.00    +0.105 C 
ATOM      2  N   UNL     1      39.657   4.633 -43.887  0.00  0.00    -0.302 NA
ATOM      3  C   UNL     1      40.370   5.046 -45.103  0.00  0.00    +0.085 C 
ATOM      4  C   UNL     1      41.498   4.075 -45.499  0.00  0.00    +0.027 C 
ATOM      5  C   UNL     1      41.016   2.602 -45.517  0.00  0.00    +0.001 C 
ATOM      6  C   UNL     1      42.194   1.619 -45.802  0.00  0.00    +0.012 C 
ATOM      7  C   UNL     1      42.702   0.886 -44.561  0.00  0.00    +0.001 C 
ATOM      8  C   UNL     1      41.583   0.098 -43.874  0.00  0.00    +0.000 C 
ATOM      9  C   UNL     1      40.242   0.840 -43.843  0.00  0.00    +0.006 C 
ATOM     10  C   UNL     1      40.445   2.339 -44.094  0.00  0.00    +0.017 C 
ATOM     11  C   UNL     1      39.205   3.218 -43.883  0.00  0.00    +0.065 C 
ATOM     12  C   UNL     1      38.096   2.826 -44.881  0.00  0.00    +0.054 C 
ATOM     13  C   UNL     1      38.569   2.608 -46.297  0.00  0.00    -0.042 A 
ATOM     14  C   UNL     1      37.608   2.489 -47.312  0.00  0.00    +0.006 A 
ATOM     15  C   UNL     1      37.992   2.317 -48.642  0.00  0.00    +0.023 A 
ATOM     16  C   UNL     1      39.339   2.315 -48.993  0.00  0.00    +0.025 A 
ATOM     17  C   UNL     1      40.296   2.361 -47.974  0.00  0.00    +0.027 A 
ATOM     18  C   UNL     1      39.935   2.496 -46.615  0.00  0.00    -0.036 A 
ENDROOT
BRANCH  16  19
ATOM     19  N   UNL     1      39.725   2.051 -50.313  0.00  0.00    -0.358 N 
ATOM     20  H   UNL     1      39.283   2.657 -50.996  0.00  0.00    +0.142 HD
ATOM     21  H   UNL     1      40.730   1.993 -50.440  0.00  0.00    +0.142 HD
ENDBRANCH  16  19
TORSDOF 1
ENDMDL
MODEL 2
REMARK VINA RESULT:    -5.717      1.971      4.149
REMARK INTER + INTRA:          -5.884
REMARK INTER:                  -5.884
REMARK INTRA:                   0.000
REMARK UNBOUND:                 0.000
REMARK  Name = 
REMARK  2 active torsions:
REMARK  status: ('A' for Active; 'I' for Inactive)
REMARK    1  A    between atoms: C_1  and  N_2
REMARK    2  A    between atoms: C_16  and  N_17
REMARK                            x       y       z     vdW  Elec       q    Type
REMARK                         _______ _______ _______ _____ _____    ______ ____
ROOT
ATOM      1  C   UNL     1      37.638   4.341 -43.554  0.00  0.00    +0.105 C 
ATOM      2  N   UNL     1      38.248   4.385 -44.880  0.00  0.00    -0.302 NA
ATOM      3  C   UNL     1      38.046   3.118 -45.596  0.00  0.00    +0.085 C 
ATOM      4  C   UNL     1      38.679   3.114 -47.000  0.00  0.00    +0.027 C 
ATOM      5  C   UNL     1      40.150   3.599 -46.975  0.00  0.00    +0.001 C 
ATOM      6  C   UNL     1      40.742   3.703 -48.416  0.00  0.00    +0.012 C 
ATOM      7  C   UNL     1      40.832   5.134 -48.946  0.00  0.00    +0.001 C 
ATOM      8  C   UNL     1      41.669   6.025 -48.024  0.00  0.00    +0.000 C 
ATOM      9  C   UNL     1      41.426   5.763 -46.533  0.00  0.00    +0.006 C 
ATOM     10  C   UNL     1      40.107   5.010 -46.321  0.00  0.00    +0.017 C 
ATOM     11  C   UNL     1      39.652   4.871 -44.863  0.00  0.00    +0.065 C 
ATOM     12  C   UNL     1      40.679   4.046 -44.059  0.00  0.00    +0.054 C 
ATOM     13  C   UNL     1      41.179   2.807 -44.759  0.00  0.00    -0.042 A 
ATOM     14  C   UNL     1      41.921   1.875 -44.018  0.00  0.00    +0.006 A 
ATOM     15  C   UNL     1      42.381   0.697 -44.610  0.00  0.00    +0.023 A 
ATOM     16  C   UNL     1      42.066   0.402 -45.933  0.00  0.00    +0.025 A 
ATOM     17  C   UNL     1      41.390   1.364 -46.690  0.00  0.00    +0.027 A 
ATOM     18  C   UNL     1      40.946   2.581 -46.129  0.00  0.00    -0.036 A 
ENDROOT
BRANCH  16  19
ATOM     19  N   UNL     1      42.605  -0.733 -46.551  0.00  0.00    -0.358 N 
ATOM     20  H   UNL     1      43.617  -0.710 -46.632  0.00  0.00    +0.142 HD
ATOM     21  H   UNL     1      42.269  -1.608 -46.164  0.00  0.00    +0.142 HD
ENDBRANCH  16  19
TORSDOF 1
ENDMDL
MODEL 3
REMARK VINA RESULT:    -5.683     14.468     17.212
REMARK INTER + INTRA:          -5.849
REMARK INTER:                  -5.849
REMARK INTRA:                   0.000
REMARK UNBOUND:                 0.000
REMARK  Name = 
REMARK  2 active torsions:
REMARK  status: ('A' for Active; 'I' for Inactive)
REMARK    1  A    between atoms: C_1  and  N_2
REMARK    2  A    between atoms: C_16  and  N_17
REMARK                            x       y       z     vdW  Elec       q    Type
REMARK                         _______ _______ _______ _____ _____    ______ ____
ROOT
ATOM      1  C   UNL     1      48.594   0.243 -63.636  0.00  0.00    +0.105 C 
ATOM      2  N   UNL     1      48.303  -0.865 -62.732  0.00  0.00    -0.302 NA
ATOM      3  C   UNL     1      46.895  -0.846 -62.310  0.00  0.00    +0.085 C 
ATOM      4  C   UNL     1      46.540  -1.995 -61.348  0.00  0.00    +0.027 C 
ATOM      5  C   UNL     1      47.550  -2.105 -60.178  0.00  0.00    +0.001 C 
ATOM      6  C   UNL     1      47.248  -3.344 -59.277  0.00  0.00    +0.012 C 
ATOM      7  C   UNL     1      48.194  -4.522 -59.509  0.00  0.00    +0.001 C 
ATOM      8  C   UNL     1      49.656  -4.122 -59.291  0.00  0.00    +0.000 C 
ATOM      9  C   UNL     1      49.999  -2.732 -59.839  0.00  0.00    +0.006 C 
ATOM     10  C   UNL     1      48.943  -2.271 -60.850  0.00  0.00    +0.017 C 
ATOM     11  C   UNL     1      49.281  -0.988 -61.620  0.00  0.00    +0.065 C 
ATOM     12  C   UNL     1      49.402   0.204 -60.648  0.00  0.00    +0.054 C 
ATOM     13  C   UNL     1      48.316   0.278 -59.603  0.00  0.00    -0.042 A 
ATOM     14  C   UNL     1      48.206   1.448 -58.837  0.00  0.00    +0.006 A 
ATOM     15  C   UNL     1      47.200   1.581 -57.879  0.00  0.00    +0.023 A 
ATOM     16  C   UNL     1      46.254   0.575 -57.704  0.00  0.00    +0.025 A 
ATOM     17  C   UNL     1      46.408  -0.619 -58.416  0.00  0.00    +0.027 A 
ATOM     18  C   UNL     1      47.439  -0.797 -59.364  0.00  0.00    -0.036 A 
ENDROOT
BRANCH  16  19
ATOM     19  N   UNL     1      45.303   0.669 -56.680  0.00  0.00    -0.358 N 
ATOM     20  H   UNL     1      44.684   1.468 -56.772  0.00  0.00    +0.142 HD
ATOM     21  H   UNL     1      44.797  -0.194 -56.514  0.00  0.00    +0.142 HD
ENDBRANCH  16  19
TORSDOF 1
ENDMDL
MODEL 4
REMARK VINA RESULT:    -5.678     11.312     13.815
REMARK INTER + INTRA:          -5.844
REMARK INTER:                  -5.844
REMARK INTRA:                   0.000
REMARK UNBOUND:                 0.000
REMARK  Name = 
REMARK  2 active torsions:
REMARK  status: ('A' for Active; 'I' for Inactive)
REMARK    1  A    between atoms: C_1  and  N_2
REMARK    2  A    between atoms: C_16  and  N_17
REMARK                            x       y       z     vdW  Elec       q    Type
REMARK                         _______ _______ _______ _____ _____    ______ ____
ROOT
ATOM      1  C   UNL     1      47.403  -0.584 -59.076  0.00  0.00    +0.105 C 
ATOM      2  N   UNL     1      46.051  -0.111 -58.794  0.00  0.00    -0.302 NA
ATOM      3  C   UNL     1      45.898   0.240 -57.376  0.00  0.00    +0.085 C 
ATOM      4  C   UNL     1      44.483   0.740 -57.029  0.00  0.00    +0.027 C 
ATOM      5  C   UNL     1      43.384  -0.211 -57.567  0.00  0.00    +0.001 C 
ATOM      6  C   UNL     1      41.956   0.365 -57.313  0.00  0.00    +0.012 C 
ATOM      7  C   UNL     1      41.303   0.969 -58.555  0.00  0.00    +0.001 C 
ATOM      8  C   UNL     1      41.207  -0.050 -59.694  0.00  0.00    +0.000 C 
ATOM      9  C   UNL     1      42.447  -0.941 -59.825  0.00  0.00    +0.006 C 
ATOM     10  C   UNL     1      43.644  -0.316 -59.097  0.00  0.00    +0.017 C 
ATOM     11  C   UNL     1      44.993  -1.008 -59.328  0.00  0.00    +0.065 C 
ATOM     12  C   UNL     1      44.951  -2.454 -58.790  0.00  0.00    +0.054 C 
ATOM     13  C   UNL     1      44.309  -2.603 -57.433  0.00  0.00    -0.042 A 
ATOM     14  C   UNL     1      44.442  -3.828 -56.763  0.00  0.00    +0.006 A 
ATOM     15  C   UNL     1      43.894  -4.009 -55.492  0.00  0.00    +0.023 A 
ATOM     16  C   UNL     1      43.251  -2.959 -54.845  0.00  0.00    +0.025 A 
ATOM     17  C   UNL     1      43.055  -1.762 -55.542  0.00  0.00    +0.027 A 
ATOM     18  C   UNL     1      43.566  -1.564 -56.844  0.00  0.00    -0.036 A 
ENDROOT
BRANCH  16  19
ATOM     19  N   UNL     1      42.621  -3.168 -53.612  0.00  0.00    -0.358 N 
ATOM     20  H   UNL     1      42.654  -4.132 -53.296  0.00  0.00    +0.142 HD
ATOM     21  H   UNL     1      42.909  -2.516 -52.890  0.00  0.00    +0.142 HD
ENDBRANCH  16  19
TORSDOF 1
ENDMDL
MODEL 5
REMARK VINA RESULT:    -5.648     11.342     13.544
REMARK INTER + INTRA:          -5.814
REMARK INTER:                  -5.814
REMARK INTRA:                   0.000
REMARK UNBOUND:                 0.000
REMARK  Name = 
REMARK  2 active torsions:
REMARK  status: ('A' for Active; 'I' for Inactive)
REMARK    1  A    between atoms: C_1  and  N_2
REMARK    2  A    between atoms: C_16  and  N_17
REMARK                            x       y       z     vdW  Elec       q    Type
REMARK                         _______ _______ _______ _____ _____    ______ ____
ROOT
ATOM      1  C   UNL     1      40.311  -1.969 -60.087  0.00  0.00    +0.105 C 
ATOM      2  N   UNL     1      40.815  -2.080 -58.721  0.00  0.00    -0.302 NA
ATOM      3  C   UNL     1      41.094  -0.754 -58.152  0.00  0.00    +0.085 C 
ATOM      4  C   UNL     1      41.634  -0.820 -56.711  0.00  0.00    +0.027 C 
ATOM      5  C   UNL     1      42.805  -1.826 -56.577  0.00  0.00    +0.001 C 
ATOM      6  C   UNL     1      43.265  -1.971 -55.092  0.00  0.00    +0.012 C 
ATOM      7  C   UNL     1      42.780  -3.254 -54.417  0.00  0.00    +0.001 C 
ATOM      8  C   UNL     1      43.238  -4.500 -55.179  0.00  0.00    +0.000 C 
ATOM      9  C   UNL     1      43.162  -4.348 -56.703  0.00  0.00    +0.006 C 
ATOM     10  C   UNL     1      42.243  -3.183 -57.088  0.00  0.00    +0.017 C 
ATOM     11  C   UNL     1      41.923  -3.060 -58.583  0.00  0.00    +0.065 C 
ATOM     12  C   UNL     1      43.213  -2.789 -59.385  0.00  0.00    +0.054 C 
ATOM     13  C   UNL     1      44.130  -1.757 -58.776  0.00  0.00    -0.042 A 
ATOM     14  C   UNL     1      45.196  -1.273 -59.548  0.00  0.00    +0.006 A 
ATOM     15  C   UNL     1      46.055  -0.295 -59.044  0.00  0.00    +0.023 A 
ATOM     16  C   UNL     1      45.836   0.256 -57.784  0.00  0.00    +0.025 A 
ATOM     17  C   UNL     1      44.818  -0.279 -56.988  0.00  0.00    +0.027 A 
ATOM     18  C   UNL     1      43.958  -1.295 -57.458  0.00  0.00    -0.036 A 
ENDROOT
BRANCH  16  19
ATOM     19  N   UNL     1      46.751   1.167 -57.243  0.00  0.00    -0.358 N 
ATOM     20  H   UNL     1      46.532   2.136 -57.451  0.00  0.00    +0.142 HD
ATOM     21  H   UNL     1      46.942   1.018 -56.258  0.00  0.00    +0.142 HD
ENDBRANCH  16  19
TORSDOF 1
ENDMDL
MODEL 6
REMARK VINA RESULT:    -5.506     11.788     14.806
REMARK INTER + INTRA:          -5.667
REMARK INTER:                  -5.667
REMARK INTRA:                   0.000
REMARK UNBOUND:                 0.000
REMARK  Name = 
REMARK  2 active torsions:
REMARK  status: ('A' for Active; 'I' for Inactive)
REMARK    1  A    between atoms: C_1  and  N_2
REMARK    2  A    between atoms: C_16  and  N_17
REMARK                            x       y       z     vdW  Elec       q    Type
REMARK                         _______ _______ _______ _____ _____    ______ ____
ROOT
ATOM      1  C   UNL     1      43.700  -3.175 -61.644  0.00  0.00    +0.105 C 
ATOM      2  N   UNL     1      43.451  -2.647 -60.306  0.00  0.00    -0.302 NA
ATOM      3  C   UNL     1      43.417  -1.178 -60.316  0.00  0.00    +0.085 C 
ATOM      4  C   UNL     1      43.161  -0.574 -58.922  0.00  0.00    +0.027 C 
ATOM      5  C   UNL     1      44.100  -1.178 -57.847  0.00  0.00    +0.001 C 
ATOM      6  C   UNL     1      43.752  -0.646 -56.421  0.00  0.00    +0.012 C 
ATOM      7  C   UNL     1      42.985  -1.646 -55.558  0.00  0.00    +0.001 C 
ATOM      8  C   UNL     1      43.754  -2.960 -55.398  0.00  0.00    +0.000 C 
ATOM      9  C   UNL     1      44.453  -3.420 -56.683  0.00  0.00    +0.006 C 
ATOM     10  C   UNL     1      43.859  -2.714 -57.907  0.00  0.00    +0.017 C 
ATOM     11  C   UNL     1      44.333  -3.240 -59.268  0.00  0.00    +0.065 C 
ATOM     12  C   UNL     1      45.853  -3.027 -59.424  0.00  0.00    +0.054 C 
ATOM     13  C   UNL     1      46.349  -1.671 -58.985  0.00  0.00    -0.042 A 
ATOM     14  C   UNL     1      47.662  -1.302 -59.312  0.00  0.00    +0.006 A 
ATOM     15  C   UNL     1      48.160  -0.048 -58.956  0.00  0.00    +0.023 A 
ATOM     16  C   UNL     1      47.343   0.880 -58.317  0.00  0.00    +0.025 A 
ATOM     17  C   UNL     1      46.059   0.486 -57.927  0.00  0.00    +0.027 A 
ATOM     18  C   UNL     1      45.542  -0.791 -58.240  0.00  0.00    -0.036 A 
ENDROOT
BRANCH  16  19
ATOM     19  N   UNL     1      47.870   2.102 -57.879  0.00  0.00    -0.358 N 
ATOM     20  H   UNL     1      47.888   2.198 -56.868  0.00  0.00    +0.142 HD
ATOM     21  H   UNL     1      48.759   2.340 -58.306  0.00  0.00    +0.142 HD
ENDBRANCH  16  19
TORSDOF 1
ENDMDL
MODEL 7
REMARK VINA RESULT:    -5.504      1.929      4.066
REMARK INTER + INTRA:          -5.665
REMARK INTER:                  -5.665
REMARK INTRA:                   0.000
REMARK UNBOUND:                 0.000
REMARK  Name = 
REMARK  2 active torsions:
REMARK  status: ('A' for Active; 'I' for Inactive)
REMARK    1  A    between atoms: C_1  and  N_2
REMARK    2  A    between atoms: C_16  and  N_17
REMARK                            x       y       z     vdW  Elec       q    Type
REMARK                         _______ _______ _______ _____ _____    ______ ____
ROOT
ATOM      1  C   UNL     1      37.163   3.005 -46.070  0.00  0.00    +0.105 C 
ATOM      2  N   UNL     1      38.400   2.513 -45.471  0.00  0.00    -0.302 NA
ATOM      3  C   UNL     1      38.701   3.225 -44.222  0.00  0.00    +0.085 C 
ATOM      4  C   UNL     1      40.003   2.745 -43.554  0.00  0.00    +0.027 C 
ATOM      5  C   UNL     1      41.185   2.696 -44.556  0.00  0.00    +0.001 C 
ATOM      6  C   UNL     1      42.467   2.096 -43.898  0.00  0.00    +0.012 C 
ATOM      7  C   UNL     1      42.751   0.650 -44.304  0.00  0.00    +0.001 C 
ATOM      8  C   UNL     1      42.887   0.507 -45.822  0.00  0.00    +0.000 C 
ATOM      9  C   UNL     1      41.876   1.350 -46.609  0.00  0.00    +0.006 C 
ATOM     10  C   UNL     1      40.706   1.773 -45.712  0.00  0.00    +0.017 C 
ATOM     11  C   UNL     1      39.530   2.444 -46.433  0.00  0.00    +0.065 C 
ATOM     12  C   UNL     1      39.987   3.765 -47.086  0.00  0.00    +0.054 C 
ATOM     13  C   UNL     1      40.862   4.631 -46.213  0.00  0.00    -0.042 A 
ATOM     14  C   UNL     1      41.123   5.946 -46.626  0.00  0.00    +0.006 A 
ATOM     15  C   UNL     1      41.901   6.799 -45.840  0.00  0.00    +0.023 A 
ATOM     16  C   UNL     1      42.387   6.374 -44.607  0.00  0.00    +0.025 A 
ATOM     17  C   UNL     1      42.188   5.042 -44.231  0.00  0.00    +0.027 A 
ATOM     18  C   UNL     1      41.437   4.146 -45.024  0.00  0.00    -0.036 A 
ENDROOT
BRANCH  16  19
ATOM     19  N   UNL     1      43.243   7.197 -43.864  0.00  0.00    -0.358 N 
ATOM     20  H   UNL     1      44.041   6.707 -43.473  0.00  0.00    +0.142 HD
ATOM     21  H   UNL     1      43.510   8.048 -44.346  0.00  0.00    +0.142 HD
ENDBRANCH  16  19
TORSDOF 1
ENDMDL
MODEL 8
REMARK VINA RESULT:    -5.446      2.134      4.219
REMARK INTER + INTRA:          -5.605
REMARK INTER:                  -5.605
REMARK INTRA:                   0.000
REMARK UNBOUND:                 0.000
REMARK  Name = 
REMARK  2 active torsions:
REMARK  status: ('A' for Active; 'I' for Inactive)
REMARK    1  A    between atoms: C_1  and  N_2
REMARK    2  A    between atoms: C_16  and  N_17
REMARK                            x       y       z     vdW  Elec       q    Type
REMARK                         _______ _______ _______ _____ _____    ______ ____
ROOT
ATOM      1  C   UNL     1      42.220   1.579 -44.238  0.00  0.00    +0.105 C 
ATOM      2  N   UNL     1      41.204   1.589 -45.287  0.00  0.00    -0.302 NA
ATOM      3  C   UNL     1      41.822   1.575 -46.619  0.00  0.00    +0.085 C 
ATOM      4  C   UNL     1      40.789   1.591 -47.762  0.00  0.00    +0.027 C 
ATOM      5  C   UNL     1      39.727   2.704 -47.567  0.00  0.00    +0.001 C 
ATOM      6  C   UNL     1      38.620   2.634 -48.666  0.00  0.00    +0.012 C 
ATOM      7  C   UNL     1      37.305   2.025 -48.180  0.00  0.00    +0.001 C 
ATOM      8  C   UNL     1      36.737   2.792 -46.982  0.00  0.00    +0.000 C 
ATOM      9  C   UNL     1      37.806   3.234 -45.976  0.00  0.00    +0.006 C 
ATOM     10  C   UNL     1      39.099   2.434 -46.170  0.00  0.00    +0.017 C 
ATOM     11  C   UNL     1      40.172   2.640 -45.093  0.00  0.00    +0.065 C 
ATOM     12  C   UNL     1      40.647   4.108 -45.085  0.00  0.00    +0.054 C 
ATOM     13  C   UNL     1      40.902   4.695 -46.451  0.00  0.00    -0.042 A 
ATOM     14  C   UNL     1      41.562   5.931 -46.533  0.00  0.00    +0.006 A 
ATOM     15  C   UNL     1      41.851   6.504 -47.773  0.00  0.00    +0.023 A 
ATOM     16  C   UNL     1      41.536   5.833 -48.951  0.00  0.00    +0.025 A 
ATOM     17  C   UNL     1      40.813   4.638 -48.868  0.00  0.00    +0.027 A 
ATOM     18  C   UNL     1      40.475   4.054 -47.628  0.00  0.00    -0.036 A 
ENDROOT
BRANCH  16  19
ATOM     19  N   UNL     1      41.741   6.450 -50.191  0.00  0.00    -0.358 N 
ATOM     20  H   UNL     1      42.043   7.416 -50.121  0.00  0.00    +0.142 HD
ATOM     21  H   UNL     1      42.320   5.909 -50.825  0.00  0.00    +0.142 HD
ENDBRANCH  16  19
TORSDOF 1
ENDMDL
MODEL 9
REMARK VINA RESULT:    -5.357     12.758     14.760
REMARK INTER + INTRA:          -5.514
REMARK INTER:                  -5.514
REMARK INTRA:                   0.000
REMARK UNBOUND:                 0.000
REMARK  Name = 
REMARK  2 active torsions:
REMARK  status: ('A' for Active; 'I' for Inactive)
REMARK    1  A    between atoms: C_1  and  N_2
REMARK    2  A    between atoms: C_16  and  N_17
REMARK                            x       y       z     vdW  Elec       q    Type
REMARK                         _______ _______ _______ _____ _____    ______ ____
ROOT
ATOM      1  C   UNL     1      41.935   0.651 -58.581  0.00  0.00    +0.105 C 
ATOM      2  N   UNL     1      43.334   0.630 -58.995  0.00  0.00    -0.302 NA
ATOM      3  C   UNL     1      43.564  -0.388 -60.029  0.00  0.00    +0.085 C 
ATOM      4  C   UNL     1      45.031  -0.452 -60.495  0.00  0.00    +0.027 C 
ATOM      5  C   UNL     1      46.015  -0.530 -59.301  0.00  0.00    +0.001 C 
ATOM      6  C   UNL     1      47.500  -0.474 -59.780  0.00  0.00    +0.012 C 
ATOM      7  C   UNL     1      48.170   0.883 -59.563  0.00  0.00    +0.001 C 
ATOM      8  C   UNL     1      48.131   1.302 -58.091  0.00  0.00    +0.000 C 
ATOM      9  C   UNL     1      46.807   0.970 -57.395  0.00  0.00    +0.006 C 
ATOM     10  C   UNL     1      45.699   0.717 -58.425  0.00  0.00    +0.017 C 
ATOM     11  C   UNL     1      44.283   0.578 -57.852  0.00  0.00    +0.065 C 
ATOM     12  C   UNL     1      44.201  -0.648 -56.918  0.00  0.00    +0.054 C 
ATOM     13  C   UNL     1      44.868  -1.892 -57.451  0.00  0.00    -0.042 A 
ATOM     14  C   UNL     1      44.638  -3.108 -56.790  0.00  0.00    +0.006 A 
ATOM     15  C   UNL     1      45.206  -4.293 -57.259  0.00  0.00    +0.023 A 
ATOM     16  C   UNL     1      45.967  -4.298 -58.424  0.00  0.00    +0.025 A 
ATOM     17  C   UNL     1      46.256  -3.076 -59.040  0.00  0.00    +0.027 A 
ATOM     18  C   UNL     1      45.727  -1.856 -58.565  0.00  0.00    -0.036 A 
ENDROOT
BRANCH  16  19
ATOM     19  N   UNL     1      46.612  -5.469 -58.841  0.00  0.00    -0.358 N 
ATOM     20  H   UNL     1      46.170  -5.915 -59.639  0.00  0.00    +0.142 HD
ATOM     21  H   UNL     1      47.613  -5.362 -58.965  0.00  0.00    +0.142 HD
ENDBRANCH  16  19
TORSDOF 1
ENDMDL
