MODEL 1
REMARK VINA RESULT:    -6.654      0.000      0.000
REMARK INTER + INTRA:          -9.586
REMARK INTER:                  -9.377
REMARK INTRA:                  -0.209
REMARK UNBOUND:                -0.209
REMARK  Name = 
REMARK  11 active torsions:
REMARK  status: ('A' for Active; 'I' for Inactive)
REMARK    1  A    between atoms: C_1  and  C_2
REMARK    2  A    between atoms: C_5  and  C_6
REMARK    3  A    between atoms: C_9  and  C_10
REMARK    4  A    between atoms: C_13  and  C_14
REMARK    5  A    between atoms: N_16  and  C_17
REMARK    6  A    between atoms: C_20  and  O_21
REMARK    7  A    between atoms: O_21  and  S_22
REMARK    8  A    between atoms: S_22  and  C_23
REMARK    9  A    between atoms: C_26  and  N_27
REMARK   10  A    between atoms: N_30  and  C_31
REMARK   11  A    between atoms: C_37  and  C_38
REMARK                            x       y       z     vdW  Elec       q    Type
REMARK                         _______ _______ _______ _____ _____    ______ ____
ROOT
ATOM      1  C   UNL     1      -4.694  -1.572  -6.486  0.00  0.00    +0.248 C 
ATOM      2  O   UNL     1      -5.566  -2.395  -6.728  0.00  0.00    -0.270 OA
ATOM      3  N   UNL     1      -4.310  -0.494  -7.264  0.00  0.00    -0.281 N 
ATOM      4  H   UNL     1      -3.489   0.014  -6.959  0.00  0.00    +0.155 HD
ENDROOT
BRANCH   1   8
ATOM      5  C   UNL     1      -2.432  -1.948  -2.846  0.00  0.00    -0.018 A 
ATOM      6  C   UNL     1      -2.826  -3.092  -3.562  0.00  0.00    +0.009 A 
ATOM      7  C   UNL     1      -3.561  -2.983  -4.745  0.00  0.00    +0.013 A 
ATOM      8  C   UNL     1      -3.914  -1.719  -5.229  0.00  0.00    +0.037 A 
ATOM      9  C   UNL     1      -3.518  -0.571  -4.541  0.00  0.00    +0.013 A 
ATOM     10  C   UNL     1      -2.794  -0.687  -3.350  0.00  0.00    +0.009 A 
BRANCH   5  14
ATOM     11  C   UNL     1      -0.282  -2.396   0.871  0.00  0.00    +0.039 A 
ATOM     12  C   UNL     1      -1.647  -2.684   0.775  0.00  0.00    +0.014 A 
ATOM     13  C   UNL     1      -2.326  -2.522  -0.436  0.00  0.00    +0.009 A 
ATOM     14  C   UNL     1      -1.664  -2.081  -1.595  0.00  0.00    -0.015 A 
ATOM     15  C   UNL     1      -0.281  -1.802  -1.511  0.00  0.00    -0.042 A 
ATOM     16  C   UNL     1       0.513  -1.333  -2.704  0.00  0.00    +0.044 C 
ATOM     17  C   UNL     1       0.386  -1.950  -0.278  0.00  0.00    +0.017 A 
BRANCH  11  22
ATOM     18  C   UNL     1       0.114  -3.012   5.626  0.00  0.00    +0.111 C 
ATOM     19  C   UNL     1       0.585  -2.855   4.242  0.00  0.00    +0.215 A 
ATOM     20  N   UNL     1       1.814  -2.835   3.769  0.00  0.00    -0.112 NA
ATOM     21  N   UNL     1       1.698  -2.666   2.403  0.00  0.00    -0.107 NA
ATOM     22  C   UNL     1       0.407  -2.583   2.141  0.00  0.00    +0.248 A 
ATOM     23  O   UNL     1      -0.366  -2.699   3.271  0.00  0.00    -0.421 OA
ENDBRANCH  11  22
ENDBRANCH   5  14
ENDBRANCH   1   8
BRANCH   3  24
ATOM     24  C   UNL     1      -4.857  -0.081  -8.498  0.00  0.00    +0.036 A 
ATOM     25  C   UNL     1      -6.223  -0.299  -8.688  0.00  0.00    +0.027 A 
ATOM     26  C   UNL     1      -6.840   0.107  -9.866  0.00  0.00    +0.052 A 
ATOM     27  C   UNL     1      -6.087   0.735 -10.859  0.00  0.00    +0.177 A 
ATOM     28  C   UNL     1      -4.693   0.915 -10.740  0.00  0.00    +0.077 A 
ATOM     29  C   UNL     1      -4.111   0.518  -9.523  0.00  0.00    +0.050 A 
BRANCH  28  30
ATOM     30  N   UNL     1      -3.963   1.498 -11.784  0.00  0.00    -0.325 N 
ATOM     31  C   UNL     1      -3.641   2.945 -11.760  0.00  0.00    +0.120 C 
ATOM     32  C   UNL     1      -2.267   3.251 -11.116  0.00  0.00    +0.103 C 
ATOM     33  N   UNL     1      -1.168   2.452 -11.704  0.00  0.00    -0.302 NA
ATOM     34  C   UNL     1       0.094   2.738 -11.027  0.00  0.00    +0.105 C 
ATOM     35  C   UNL     1      -1.506   1.017 -11.596  0.00  0.00    +0.103 C 
ATOM     36  C   UNL     1      -2.836   0.681 -12.308  0.00  0.00    +0.120 C 
ENDBRANCH  28  30
BRANCH  27  37
ATOM     37  O   UNL     1      -6.733   1.176 -11.990  0.00  0.00    -0.344 OA
BRANCH  37  38
ATOM     38  S   UNL     1      -7.688   2.503 -11.900  0.00  0.00    +0.118 S 
ATOM     39  C   UNL     1      -7.787   2.687 -10.132  0.00  0.00    +0.242 C 
ATOM     40  O   UNL     1      -6.929   3.629 -12.416  0.00  0.00    -0.137 OA
ATOM     41  O   UNL     1      -9.012   2.213 -12.414  0.00  0.00    -0.137 OA
ENDBRANCH  37  38
ENDBRANCH  27  37
ENDBRANCH   3  24
TORSDOF 7
ENDMDL
