MODEL 1
REMARK VINA RESULT:    -5.720      0.000      0.000
REMARK INTER + INTRA:          -5.887
REMARK INTER:                  -5.887
REMARK INTRA:                   0.000
REMARK UNBOUND:                 0.000
REMARK  Name = 
REMARK  2 active torsions:
REMARK  status: ('A' for Active; 'I' for Inactive)
REMARK    1  A    between atoms: C_1  and  N_2
REMARK    2  A    between atoms: C_16  and  N_17
REMARK                            x       y       z     vdW  Elec       q    Type
REMARK                         _______ _______ _______ _____ _____    ______ ____
ROOT
ATOM      1  C   UNL     1      37.511   4.176 -43.596  0.00  0.00    +0.105 C 
ATOM      2  N   UNL     1      38.162   4.274 -44.898  0.00  0.00    -0.302 NA
ATOM      3  C   UNL     1      38.009   3.028 -45.661  0.00  0.00    +0.085 C 
ATOM      4  C   UNL     1      38.686   3.082 -47.043  0.00  0.00    +0.027 C 
ATOM      5  C   UNL     1      40.145   3.597 -46.955  0.00  0.00    +0.001 C 
ATOM      6  C   UNL     1      40.781   3.759 -48.373  0.00  0.00    +0.012 C 
ATOM      7  C   UNL     1      40.856   5.208 -48.854  0.00  0.00    +0.001 C 
ATOM      8  C   UNL     1      41.645   6.085 -47.877  0.00  0.00    +0.000 C 
ATOM      9  C   UNL     1      41.360   5.770 -46.403  0.00  0.00    +0.006 C 
ATOM     10  C   UNL     1      40.053   4.984 -46.259  0.00  0.00    +0.017 C 
ATOM     11  C   UNL     1      39.554   4.788 -44.821  0.00  0.00    +0.065 C 
ATOM     12  C   UNL     1      40.572   3.958 -44.011  0.00  0.00    +0.054 C 
ATOM     13  C   UNL     1      41.121   2.752 -44.734  0.00  0.00    -0.042 A 
ATOM     14  C   UNL     1      41.858   1.812 -44.000  0.00  0.00    +0.006 A 
ATOM     15  C   UNL     1      42.360   0.664 -44.613  0.00  0.00    +0.023 A 
ATOM     16  C   UNL     1      42.095   0.406 -45.954  0.00  0.00    +0.025 A 
ATOM     17  C   UNL     1      41.423   1.378 -46.701  0.00  0.00    +0.027 A 
ATOM     18  C   UNL     1      40.935   2.567 -46.117  0.00  0.00    -0.036 A 
ENDROOT
BRANCH  16  19
ATOM     19  N   UNL     1      42.677  -0.697 -46.590  0.00  0.00    -0.358 N 
ATOM     20  H   UNL     1      43.004  -1.412 -45.949  0.00  0.00    +0.142 HD
ATOM     21  H   UNL     1      42.111  -1.081 -47.341  0.00  0.00    +0.142 HD
ENDBRANCH  16  19
TORSDOF 1
ENDMDL
MODEL 2
REMARK VINA RESULT:    -5.718     11.262     13.357
REMARK INTER + INTRA:          -5.885
REMARK INTER:                  -5.885
REMARK INTRA:                   0.000
REMARK UNBOUND:                 0.000
REMARK  Name = 
REMARK  2 active torsions:
REMARK  status: ('A' for Active; 'I' for Inactive)
REMARK    1  A    between atoms: C_1  and  N_2
REMARK    2  A    between atoms: C_16  and  N_17
REMARK                            x       y       z     vdW  Elec       q    Type
REMARK                         _______ _______ _______ _____ _____    ______ ____
ROOT
ATOM      1  C   UNL     1      47.316  -0.553 -59.077  0.00  0.00    +0.105 C 
ATOM      2  N   UNL     1      45.964  -0.092 -58.776  0.00  0.00    -0.302 NA
ATOM      3  C   UNL     1      45.823   0.236 -57.350  0.00  0.00    +0.085 C 
ATOM      4  C   UNL     1      44.410   0.722 -56.982  0.00  0.00    +0.027 C 
ATOM      5  C   UNL     1      43.310  -0.225 -57.527  0.00  0.00    +0.001 C 
ATOM      6  C   UNL     1      41.880   0.339 -57.250  0.00  0.00    +0.012 C 
ATOM      7  C   UNL     1      41.212   0.960 -58.476  0.00  0.00    +0.001 C 
ATOM      8  C   UNL     1      41.111  -0.042 -59.630  0.00  0.00    +0.000 C 
ATOM      9  C   UNL     1      42.356  -0.924 -59.786  0.00  0.00    +0.006 C 
ATOM     10  C   UNL     1      43.555  -0.305 -59.060  0.00  0.00    +0.017 C 
ATOM     11  C   UNL     1      44.906  -0.986 -59.315  0.00  0.00    +0.065 C 
ATOM     12  C   UNL     1      44.877  -2.440 -58.799  0.00  0.00    +0.054 C 
ATOM     13  C   UNL     1      44.248  -2.615 -57.439  0.00  0.00    -0.042 A 
ATOM     14  C   UNL     1      44.393  -3.849 -56.789  0.00  0.00    +0.006 A 
ATOM     15  C   UNL     1      43.859  -4.053 -55.517  0.00  0.00    +0.023 A 
ATOM     16  C   UNL     1      43.215  -3.017 -54.847  0.00  0.00    +0.025 A 
ATOM     17  C   UNL     1      43.008  -1.812 -55.524  0.00  0.00    +0.027 A 
ATOM     18  C   UNL     1      43.504  -1.589 -56.826  0.00  0.00    -0.036 A 
ENDROOT
BRANCH  16  19
ATOM     19  N   UNL     1      42.599  -3.250 -53.612  0.00  0.00    -0.358 N 
ATOM     20  H   UNL     1      41.639  -3.570 -53.688  0.00  0.00    +0.142 HD
ATOM     21  H   UNL     1      43.150  -3.827 -52.983  0.00  0.00    +0.142 HD
ENDBRANCH  16  19
TORSDOF 1
ENDMDL
MODEL 3
REMARK VINA RESULT:    -5.682     14.706     17.066
REMARK INTER + INTRA:          -5.848
REMARK INTER:                  -5.848
REMARK INTRA:                   0.000
REMARK UNBOUND:                 0.000
REMARK  Name = 
REMARK  2 active torsions:
REMARK  status: ('A' for Active; 'I' for Inactive)
REMARK    1  A    between atoms: C_1  and  N_2
REMARK    2  A    between atoms: C_16  and  N_17
REMARK                            x       y       z     vdW  Elec       q    Type
REMARK                         _______ _______ _______ _____ _____    ______ ____
ROOT
ATOM      1  C   UNL     1      48.590   0.242 -63.634  0.00  0.00    +0.105 C 
ATOM      2  N   UNL     1      48.297  -0.864 -62.728  0.00  0.00    -0.302 NA
ATOM      3  C   UNL     1      46.891  -0.841 -62.303  0.00  0.00    +0.085 C 
ATOM      4  C   UNL     1      46.535  -1.989 -61.340  0.00  0.00    +0.027 C 
ATOM      5  C   UNL     1      47.548  -2.101 -60.172  0.00  0.00    +0.001 C 
ATOM      6  C   UNL     1      47.245  -3.340 -59.269  0.00  0.00    +0.012 C 
ATOM      7  C   UNL     1      48.187  -4.520 -59.503  0.00  0.00    +0.001 C 
ATOM      8  C   UNL     1      49.651  -4.124 -59.288  0.00  0.00    +0.000 C 
ATOM      9  C   UNL     1      49.996  -2.734 -59.838  0.00  0.00    +0.006 C 
ATOM     10  C   UNL     1      48.939  -2.271 -60.846  0.00  0.00    +0.017 C 
ATOM     11  C   UNL     1      49.278  -0.989 -61.619  0.00  0.00    +0.065 C 
ATOM     12  C   UNL     1      49.405   0.203 -60.647  0.00  0.00    +0.054 C 
ATOM     13  C   UNL     1      48.321   0.281 -59.599  0.00  0.00    -0.042 A 
ATOM     14  C   UNL     1      48.215   1.450 -58.833  0.00  0.00    +0.006 A 
ATOM     15  C   UNL     1      47.212   1.587 -57.874  0.00  0.00    +0.023 A 
ATOM     16  C   UNL     1      46.265   0.583 -57.696  0.00  0.00    +0.025 A 
ATOM     17  C   UNL     1      46.414  -0.611 -58.408  0.00  0.00    +0.027 A 
ATOM     18  C   UNL     1      47.442  -0.792 -59.358  0.00  0.00    -0.036 A 
ENDROOT
BRANCH  16  19
ATOM     19  N   UNL     1      45.316   0.680 -56.670  0.00  0.00    -0.358 N 
ATOM     20  H   UNL     1      44.581  -0.017 -56.726  0.00  0.00    +0.142 HD
ATOM     21  H   UNL     1      45.723   0.739 -55.742  0.00  0.00    +0.142 HD
ENDBRANCH  16  19
TORSDOF 1
ENDMDL
MODEL 4
REMARK VINA RESULT:    -5.647     11.450     13.706
REMARK INTER + INTRA:          -5.812
REMARK INTER:                  -5.812
REMARK INTRA:                   0.000
REMARK UNBOUND:                 0.000
REMARK  Name = 
REMARK  2 active torsions:
REMARK  status: ('A' for Active; 'I' for Inactive)
REMARK    1  A    between atoms: C_1  and  N_2
REMARK    2  A    between atoms: C_16  and  N_17
REMARK                            x       y       z     vdW  Elec       q    Type
REMARK                         _______ _______ _______ _____ _____    ______ ____
ROOT
ATOM      1  C   UNL     1      40.332  -2.008 -60.103  0.00  0.00    +0.105 C 
ATOM      2  N   UNL     1      40.831  -2.110 -58.736  0.00  0.00    -0.302 NA
ATOM      3  C   UNL     1      41.113  -0.781 -58.175  0.00  0.00    +0.085 C 
ATOM      4  C   UNL     1      41.649  -0.839 -56.732  0.00  0.00    +0.027 C 
ATOM      5  C   UNL     1      42.816  -1.849 -56.586  0.00  0.00    +0.001 C 
ATOM      6  C   UNL     1      43.272  -1.986 -55.099  0.00  0.00    +0.012 C 
ATOM      7  C   UNL     1      42.779  -3.261 -54.416  0.00  0.00    +0.001 C 
ATOM      8  C   UNL     1      43.236  -4.515 -55.168  0.00  0.00    +0.000 C 
ATOM      9  C   UNL     1      43.164  -4.373 -56.694  0.00  0.00    +0.006 C 
ATOM     10  C   UNL     1      42.251  -3.208 -57.089  0.00  0.00    +0.017 C 
ATOM     11  C   UNL     1      41.935  -3.094 -58.587  0.00  0.00    +0.065 C 
ATOM     12  C   UNL     1      43.229  -2.834 -59.387  0.00  0.00    +0.054 C 
ATOM     13  C   UNL     1      44.148  -1.801 -58.783  0.00  0.00    -0.042 A 
ATOM     14  C   UNL     1      45.218  -1.326 -59.554  0.00  0.00    +0.006 A 
ATOM     15  C   UNL     1      46.078  -0.348 -59.055  0.00  0.00    +0.023 A 
ATOM     16  C   UNL     1      45.859   0.212 -57.800  0.00  0.00    +0.025 A 
ATOM     17  C   UNL     1      44.837  -0.313 -57.004  0.00  0.00    +0.027 A 
ATOM     18  C   UNL     1      43.974  -1.329 -57.468  0.00  0.00    -0.036 A 
ENDROOT
BRANCH  16  19
ATOM     19  N   UNL     1      46.776   1.125 -57.263  0.00  0.00    -0.358 N 
ATOM     20  H   UNL     1      46.873   1.974 -57.809  0.00  0.00    +0.142 HD
ATOM     21  H   UNL     1      46.632   1.315 -56.276  0.00  0.00    +0.142 HD
ENDBRANCH  16  19
TORSDOF 1
ENDMDL
MODEL 5
REMARK VINA RESULT:    -5.575     12.220     13.919
REMARK INTER + INTRA:          -5.738
REMARK INTER:                  -5.738
REMARK INTRA:                   0.000
REMARK UNBOUND:                 0.000
REMARK  Name = 
REMARK  2 active torsions:
REMARK  status: ('A' for Active; 'I' for Inactive)
REMARK    1  A    between atoms: C_1  and  N_2
REMARK    2  A    between atoms: C_16  and  N_17
REMARK                            x       y       z     vdW  Elec       q    Type
REMARK                         _______ _______ _______ _____ _____    ______ ____
ROOT
ATOM      1  C   UNL     1      41.723   0.865 -57.822  0.00  0.00    +0.105 C 
ATOM      2  N   UNL     1      43.055   0.789 -58.413  0.00  0.00    -0.302 NA
ATOM      3  C   UNL     1      43.096  -0.200 -59.499  0.00  0.00    +0.085 C 
ATOM      4  C   UNL     1      44.486  -0.320 -60.151  0.00  0.00    +0.027 C 
ATOM      5  C   UNL     1      45.610  -0.489 -59.096  0.00  0.00    +0.001 C 
ATOM      6  C   UNL     1      47.023  -0.491 -59.761  0.00  0.00    +0.012 C 
ATOM      7  C   UNL     1      47.787   0.822 -59.592  0.00  0.00    +0.001 C 
ATOM      8  C   UNL     1      47.959   1.187 -58.115  0.00  0.00    +0.000 C 
ATOM      9  C   UNL     1      46.716   0.896 -57.263  0.00  0.00    +0.006 C 
ATOM     10  C   UNL     1      45.476   0.737 -58.149  0.00  0.00    +0.017 C 
ATOM     11  C   UNL     1      44.138   0.648 -57.404  0.00  0.00    +0.065 C 
ATOM     12  C   UNL     1      44.110  -0.605 -56.504  0.00  0.00    +0.054 C 
ATOM     13  C   UNL     1      44.635  -1.861 -57.155  0.00  0.00    -0.042 A 
ATOM     14  C   UNL     1      44.426  -3.087 -56.508  0.00  0.00    +0.006 A 
ATOM     15  C   UNL     1      44.862  -4.281 -57.081  0.00  0.00    +0.023 A 
ATOM     16  C   UNL     1      45.470  -4.281 -58.333  0.00  0.00    +0.025 A 
ATOM     17  C   UNL     1      45.743  -3.054 -58.944  0.00  0.00    +0.027 A 
ATOM     18  C   UNL     1      45.346  -1.827 -58.370  0.00  0.00    -0.036 A 
ENDROOT
BRANCH  16  19
ATOM     19  N   UNL     1      45.991  -5.467 -58.865  0.00  0.00    -0.358 N 
ATOM     20  H   UNL     1      46.670  -5.320 -59.605  0.00  0.00    +0.142 HD
ATOM     21  H   UNL     1      46.323  -6.120 -58.161  0.00  0.00    +0.142 HD
ENDBRANCH  16  19
TORSDOF 1
ENDMDL
MODEL 6
REMARK VINA RESULT:    -5.554      1.827      4.542
REMARK INTER + INTRA:          -5.717
REMARK INTER:                  -5.717
REMARK INTRA:                   0.000
REMARK UNBOUND:                 0.000
REMARK  Name = 
REMARK  2 active torsions:
REMARK  status: ('A' for Active; 'I' for Inactive)
REMARK    1  A    between atoms: C_1  and  N_2
REMARK    2  A    between atoms: C_16  and  N_17
REMARK                            x       y       z     vdW  Elec       q    Type
REMARK                         _______ _______ _______ _____ _____    ______ ____
ROOT
ATOM      1  C   UNL     1      37.233   3.078 -46.133  0.00  0.00    +0.105 C 
ATOM      2  N   UNL     1      38.441   2.536 -45.519  0.00  0.00    -0.302 NA
ATOM      3  C   UNL     1      38.725   3.195 -44.237  0.00  0.00    +0.085 C 
ATOM      4  C   UNL     1      39.997   2.659 -43.554  0.00  0.00    +0.027 C 
ATOM      5  C   UNL     1      41.204   2.616 -44.526  0.00  0.00    +0.001 C 
ATOM      6  C   UNL     1      42.454   1.962 -43.856  0.00  0.00    +0.012 C 
ATOM      7  C   UNL     1      42.715   0.525 -44.306  0.00  0.00    +0.001 C 
ATOM      8  C   UNL     1      42.888   0.433 -45.825  0.00  0.00    +0.000 C 
ATOM      9  C   UNL     1      41.918   1.328 -46.607  0.00  0.00    +0.006 C 
ATOM     10  C   UNL     1      40.736   1.747 -45.727  0.00  0.00    +0.017 C 
ATOM     11  C   UNL     1      39.595   2.472 -46.453  0.00  0.00    +0.065 C 
ATOM     12  C   UNL     1      40.101   3.804 -47.047  0.00  0.00    +0.054 C 
ATOM     13  C   UNL     1      40.972   4.617 -46.121  0.00  0.00    -0.042 A 
ATOM     14  C   UNL     1      41.276   5.938 -46.477  0.00  0.00    +0.006 A 
ATOM     15  C   UNL     1      42.050   6.743 -45.642  0.00  0.00    +0.023 A 
ATOM     16  C   UNL     1      42.494   6.264 -44.413  0.00  0.00    +0.025 A 
ATOM     17  C   UNL     1      42.252   4.925 -44.091  0.00  0.00    +0.027 A 
ATOM     18  C   UNL     1      41.503   4.076 -44.934  0.00  0.00    -0.036 A 
ENDROOT
BRANCH  16  19
ATOM     19  N   UNL     1      43.347   7.039 -43.619  0.00  0.00    -0.358 N 
ATOM     20  H   UNL     1      43.261   8.037 -43.780  0.00  0.00    +0.142 HD
ATOM     21  H   UNL     1      43.313   6.803 -42.632  0.00  0.00    +0.142 HD
ENDBRANCH  16  19
TORSDOF 1
ENDMDL
MODEL 7
REMARK VINA RESULT:    -5.522     12.420     14.743
REMARK INTER + INTRA:          -5.683
REMARK INTER:                  -5.683
REMARK INTRA:                   0.000
REMARK UNBOUND:                 0.000
REMARK  Name = 
REMARK  2 active torsions:
REMARK  status: ('A' for Active; 'I' for Inactive)
REMARK    1  A    between atoms: C_1  and  N_2
REMARK    2  A    between atoms: C_16  and  N_17
REMARK                            x       y       z     vdW  Elec       q    Type
REMARK                         _______ _______ _______ _____ _____    ______ ____
ROOT
ATOM      1  C   UNL     1      43.696  -3.254 -61.633  0.00  0.00    +0.105 C 
ATOM      2  N   UNL     1      43.450  -2.703 -60.305  0.00  0.00    -0.302 NA
ATOM      3  C   UNL     1      43.415  -1.235 -60.339  0.00  0.00    +0.085 C 
ATOM      4  C   UNL     1      43.164  -0.607 -58.956  0.00  0.00    +0.027 C 
ATOM      5  C   UNL     1      44.105  -1.194 -57.872  0.00  0.00    +0.001 C 
ATOM      6  C   UNL     1      43.761  -0.636 -56.454  0.00  0.00    +0.012 C 
ATOM      7  C   UNL     1      42.995  -1.622 -55.571  0.00  0.00    +0.001 C 
ATOM      8  C   UNL     1      43.766  -2.933 -55.391  0.00  0.00    +0.000 C 
ATOM      9  C   UNL     1      44.462  -3.414 -56.671  0.00  0.00    +0.006 C 
ATOM     10  C   UNL     1      43.865  -2.729 -57.904  0.00  0.00    +0.017 C 
ATOM     11  C   UNL     1      44.335  -3.279 -59.258  0.00  0.00    +0.065 C 
ATOM     12  C   UNL     1      45.855  -3.069 -59.421  0.00  0.00    +0.054 C 
ATOM     13  C   UNL     1      46.352  -1.705 -59.007  0.00  0.00    -0.042 A 
ATOM     14  C   UNL     1      47.663  -1.341 -59.343  0.00  0.00    +0.006 A 
ATOM     15  C   UNL     1      48.161  -0.082 -59.012  0.00  0.00    +0.023 A 
ATOM     16  C   UNL     1      47.347   0.857 -58.385  0.00  0.00    +0.025 A 
ATOM     17  C   UNL     1      46.065   0.469 -57.986  0.00  0.00    +0.027 A 
ATOM     18  C   UNL     1      45.547  -0.812 -58.275  0.00  0.00    -0.036 A 
ENDROOT
BRANCH  16  19
ATOM     19  N   UNL     1      47.875   2.086 -57.971  0.00  0.00    -0.358 N 
ATOM     20  H   UNL     1      48.730   2.002 -57.431  0.00  0.00    +0.142 HD
ATOM     21  H   UNL     1      47.955   2.769 -58.718  0.00  0.00    +0.142 HD
ENDBRANCH  16  19
TORSDOF 1
ENDMDL
MODEL 8
REMARK VINA RESULT:    -5.445      1.997      4.389
REMARK INTER + INTRA:          -5.604
REMARK INTER:                  -5.604
REMARK INTRA:                   0.000
REMARK UNBOUND:                 0.000
REMARK  Name = 
REMARK  2 active torsions:
REMARK  status: ('A' for Active; 'I' for Inactive)
REMARK    1  A    between atoms: C_1  and  N_2
REMARK    2  A    between atoms: C_16  and  N_17
REMARK                            x       y       z     vdW  Elec       q    Type
REMARK                         _______ _______ _______ _____ _____    ______ ____
ROOT
ATOM      1  C   UNL     1      42.153   1.590 -44.194  0.00  0.00    +0.105 C 
ATOM      2  N   UNL     1      41.152   1.603 -45.256  0.00  0.00    -0.302 NA
ATOM      3  C   UNL     1      41.786   1.582 -46.581  0.00  0.00    +0.085 C 
ATOM      4  C   UNL     1      40.768   1.601 -47.736  0.00  0.00    +0.027 C 
ATOM      5  C   UNL     1      39.709   2.719 -47.558  0.00  0.00    +0.001 C 
ATOM      6  C   UNL     1      38.614   2.653 -48.670  0.00  0.00    +0.012 C 
ATOM      7  C   UNL     1      37.290   2.051 -48.200  0.00  0.00    +0.001 C 
ATOM      8  C   UNL     1      36.712   2.824 -47.012  0.00  0.00    +0.000 C 
ATOM      9  C   UNL     1      37.771   3.264 -45.992  0.00  0.00    +0.006 C 
ATOM     10  C   UNL     1      39.061   2.457 -46.169  0.00  0.00    +0.017 C 
ATOM     11  C   UNL     1      40.122   2.659 -45.078  0.00  0.00    +0.065 C 
ATOM     12  C   UNL     1      40.604   4.125 -45.067  0.00  0.00    +0.054 C 
ATOM     13  C   UNL     1      40.880   4.708 -46.431  0.00  0.00    -0.042 A 
ATOM     14  C   UNL     1      41.547   5.939 -46.509  0.00  0.00    +0.006 A 
ATOM     15  C   UNL     1      41.855   6.507 -47.745  0.00  0.00    +0.023 A 
ATOM     16  C   UNL     1      41.550   5.836 -48.926  0.00  0.00    +0.025 A 
ATOM     17  C   UNL     1      40.822   4.645 -48.849  0.00  0.00    +0.027 A 
ATOM     18  C   UNL     1      40.464   4.066 -47.613  0.00  0.00    -0.036 A 
ENDROOT
BRANCH  16  19
ATOM     19  N   UNL     1      41.775   6.448 -50.165  0.00  0.00    -0.358 N 
ATOM     20  H   UNL     1      41.654   5.825 -50.956  0.00  0.00    +0.142 HD
ATOM     21  H   UNL     1      41.277   7.325 -50.284  0.00  0.00    +0.142 HD
ENDBRANCH  16  19
TORSDOF 1
ENDMDL
