MODEL 1
REMARK VINA RESULT:    20.237      0.000      0.000
REMARK INTER + INTRA:          26.787
REMARK INTER:                  24.969
REMARK INTRA:                   1.818
REMARK UNBOUND:                 1.818
REMARK  Name = 
REMARK  5 active torsions:
REMARK  status: ('A' for Active; 'I' for Inactive)
REMARK    1  A    between atoms: C_1  and  N_2
REMARK    2  A    between atoms: C_11  and  S_12
REMARK    3  A    between atoms: S_12  and  C_13
REMARK    4  A    between atoms: N_22  and  C_23
REMARK    5  A    between atoms: C_23  and  C_24
REMARK                            x       y       z     vdW  Elec       q    Type
REMARK                         _______ _______ _______ _____ _____    ______ ____
ROOT
ATOM      1  C   UNL     1       2.654   3.569  -3.958  0.00  0.00    +0.155 C 
ATOM      2  N   UNL     1       3.338   3.585  -2.680  0.00  0.00    -0.280 N 
ATOM      3  C   UNL     1       4.161   2.530  -2.302  0.00  0.00    +0.331 A 
ATOM      4  O   UNL     1       4.369   1.535  -2.996  0.00  0.00    -0.246 OA
ATOM      5  N   UNL     1       4.777   2.623  -1.067  0.00  0.00    -0.273 N 
ATOM      6  C   UNL     1       4.671   3.648  -0.155  0.00  0.00    +0.280 A 
ATOM      7  O   UNL     1       5.262   3.636   0.918  0.00  0.00    -0.265 OA
ATOM      8  C   UNL     1       3.816   4.690  -0.605  0.00  0.00    +0.152 A 
ATOM      9  C   UNL     1       3.185   4.649  -1.816  0.00  0.00    +0.169 A 
ATOM     10  N   UNL     1       2.424   5.753  -2.034  0.00  0.00    -0.203 NA
ATOM     11  C   UNL     1       2.596   6.486  -0.951  0.00  0.00    +0.179 A 
ATOM     12  N   UNL     1       3.423   5.876  -0.032  0.00  0.00    -0.305 N 
ATOM     13  H   UNL     1       5.368   1.848  -0.812  0.00  0.00    +0.173 HD
ENDROOT
BRANCH  11  14
ATOM     14  S   UNL     1       1.859   8.038  -0.720  0.00  0.00    -0.014 S 
BRANCH  14  15
ATOM     15  C   UNL     1       3.332   8.936  -0.705  0.00  0.00    +0.175 A 
ATOM     16  N   UNL     1       3.473  10.232  -0.849  0.00  0.00    -0.222 NA
ATOM     17  C   UNL     1       4.829  10.443  -0.763  0.00  0.00    +0.090 A 
ATOM     18  C   UNL     1       5.558  11.639  -0.845  0.00  0.00    +0.030 A 
ATOM     19  C   UNL     1       6.952  11.586  -0.723  0.00  0.00    +0.002 A 
ATOM     20  C   UNL     1       7.609  10.368  -0.526  0.00  0.00    +0.002 A 
ATOM     21  C   UNL     1       6.900   9.163  -0.443  0.00  0.00    +0.028 A 
ATOM     22  C   UNL     1       5.513   9.244  -0.568  0.00  0.00    +0.067 A 
ATOM     23  N   UNL     1       4.523   8.295  -0.538  0.00  0.00    -0.333 N 
ATOM     24  H   UNL     1       4.640   7.302  -0.399  0.00  0.00    +0.168 HD
ENDBRANCH  14  15
ENDBRANCH  11  14
BRANCH  12  25
ATOM     25  C   UNL     1       3.832   6.364   1.274  0.00  0.00    +0.200 C 
BRANCH  25  26
ATOM     26  C   UNL     1       2.652   6.587   2.136  0.00  0.00    +0.145 A 
ATOM     27  C   UNL     1       1.606   7.482   2.134  0.00  0.00    +0.157 A 
ATOM     28  N   UNL     1       0.770   7.229   3.191  0.00  0.00    -0.224 NA
ATOM     29  C   UNL     1       1.329   6.201   3.787  0.00  0.00    +0.308 A 
ATOM     30  O   UNL     1       2.475   5.749   3.206  0.00  0.00    -0.446 OA
ENDBRANCH  25  26
ENDBRANCH  12  25
TORSDOF 4
ENDMDL
MODEL 2
REMARK VINA RESULT:    20.390      3.388      5.106
REMARK INTER + INTRA:          26.976
REMARK INTER:                  26.966
REMARK INTRA:                   0.010
REMARK UNBOUND:                 1.818
REMARK  Name = 
REMARK  5 active torsions:
REMARK  status: ('A' for Active; 'I' for Inactive)
REMARK    1  A    between atoms: C_1  and  N_2
REMARK    2  A    between atoms: C_11  and  S_12
REMARK    3  A    between atoms: S_12  and  C_13
REMARK    4  A    between atoms: N_22  and  C_23
REMARK    5  A    between atoms: C_23  and  C_24
REMARK                            x       y       z     vdW  Elec       q    Type
REMARK                         _______ _______ _______ _____ _____    ______ ____
ROOT
ATOM      1  C   UNL     1       4.543   1.666  -0.417  0.00  0.00    +0.155 C 
ATOM      2  N   UNL     1       4.017   2.919  -0.921  0.00  0.00    -0.280 N 
ATOM      3  C   UNL     1       3.915   3.147  -2.289  0.00  0.00    +0.331 A 
ATOM      4  O   UNL     1       4.249   2.333  -3.150  0.00  0.00    -0.246 OA
ATOM      5  N   UNL     1       3.403   4.368  -2.688  0.00  0.00    -0.273 N 
ATOM      6  C   UNL     1       2.977   5.399  -1.882  0.00  0.00    +0.280 A 
ATOM      7  O   UNL     1       2.536   6.448  -2.337  0.00  0.00    -0.265 OA
ATOM      8  C   UNL     1       3.110   5.099  -0.499  0.00  0.00    +0.152 A 
ATOM      9  C   UNL     1       3.608   3.908  -0.052  0.00  0.00    +0.169 A 
ATOM     10  N   UNL     1       3.638   3.844   1.305  0.00  0.00    -0.203 NA
ATOM     11  C   UNL     1       3.145   5.003   1.696  0.00  0.00    +0.179 A 
ATOM     12  N   UNL     1       2.823   5.820   0.634  0.00  0.00    -0.305 N 
ATOM     13  H   UNL     1       3.338   4.513  -3.683  0.00  0.00    +0.173 HD
ENDROOT
BRANCH  11  14
ATOM     14  S   UNL     1       2.933   5.437   3.361  0.00  0.00    -0.014 S 
BRANCH  14  15
ATOM     15  C   UNL     1       4.601   5.339   3.787  0.00  0.00    +0.175 A 
ATOM     16  N   UNL     1       5.580   4.855   3.060  0.00  0.00    -0.222 NA
ATOM     17  C   UNL     1       6.699   5.005   3.845  0.00  0.00    +0.090 A 
ATOM     18  C   UNL     1       8.033   4.663   3.578  0.00  0.00    +0.030 A 
ATOM     19  C   UNL     1       9.002   4.924   4.555  0.00  0.00    +0.002 A 
ATOM     20  C   UNL     1       8.651   5.511   5.774  0.00  0.00    +0.002 A 
ATOM     21  C   UNL     1       7.325   5.858   6.060  0.00  0.00    +0.028 A 
ATOM     22  C   UNL     1       6.380   5.588   5.070  0.00  0.00    +0.067 A 
ATOM     23  N   UNL     1       5.025   5.788   5.003  0.00  0.00    -0.333 N 
ATOM     24  H   UNL     1       4.439   6.206   5.709  0.00  0.00    +0.168 HD
ENDBRANCH  14  15
ENDBRANCH  11  14
BRANCH  12  25
ATOM     25  C   UNL     1       2.273   7.165   0.669  0.00  0.00    +0.200 C 
BRANCH  25  26
ATOM     26  C   UNL     1       3.220   8.127   0.065  0.00  0.00    +0.145 A 
ATOM     27  C   UNL     1       3.089   9.282  -0.672  0.00  0.00    +0.157 A 
ATOM     28  N   UNL     1       4.328   9.785  -0.977  0.00  0.00    -0.224 NA
ATOM     29  C   UNL     1       5.154   8.930  -0.420  0.00  0.00    +0.308 A 
ATOM     30  O   UNL     1       4.560   7.895   0.236  0.00  0.00    -0.446 OA
ENDBRANCH  25  26
ENDBRANCH  12  25
TORSDOF 4
ENDMDL
MODEL 3
REMARK VINA RESULT:    21.813      3.843      6.120
REMARK INTER + INTRA:          28.731
REMARK INTER:                  27.892
REMARK INTRA:                   0.840
REMARK UNBOUND:                 1.818
REMARK  Name = 
REMARK  5 active torsions:
REMARK  status: ('A' for Active; 'I' for Inactive)
REMARK    1  A    between atoms: C_1  and  N_2
REMARK    2  A    between atoms: C_11  and  S_12
REMARK    3  A    between atoms: S_12  and  C_13
REMARK    4  A    between atoms: N_22  and  C_23
REMARK    5  A    between atoms: C_23  and  C_24
REMARK                            x       y       z     vdW  Elec       q    Type
REMARK                         _______ _______ _______ _____ _____    ______ ____
ROOT
ATOM      1  C   UNL     1       1.472   9.132   1.588  0.00  0.00    +0.155 C 
ATOM      2  N   UNL     1       2.207   8.149   0.817  0.00  0.00    -0.280 N 
ATOM      3  C   UNL     1       2.428   8.335  -0.545  0.00  0.00    +0.331 A 
ATOM      4  O   UNL     1       2.032   9.312  -1.180  0.00  0.00    -0.246 OA
ATOM      5  N   UNL     1       3.138   7.351  -1.207  0.00  0.00    -0.273 N 
ATOM      6  C   UNL     1       3.660   6.194  -0.675  0.00  0.00    +0.280 A 
ATOM      7  O   UNL     1       4.279   5.381  -1.352  0.00  0.00    -0.265 OA
ATOM      8  C   UNL     1       3.398   6.069   0.716  0.00  0.00    +0.152 A 
ATOM      9  C   UNL     1       2.703   7.012   1.419  0.00  0.00    +0.169 A 
ATOM     10  N   UNL     1       2.579   6.683   2.731  0.00  0.00    -0.203 NA
ATOM     11  C   UNL     1       3.212   5.531   2.839  0.00  0.00    +0.179 A 
ATOM     12  N   UNL     1       3.717   5.096   1.633  0.00  0.00    -0.305 N 
ATOM     13  H   UNL     1       3.286   7.504  -2.193  0.00  0.00    +0.173 HD
ENDROOT
BRANCH  11  14
ATOM     14  S   UNL     1       3.382   4.671   4.334  0.00  0.00    -0.014 S 
BRANCH  14  15
ATOM     15  C   UNL     1       5.064   4.996   4.539  0.00  0.00    +0.175 A 
ATOM     16  N   UNL     1       6.053   4.558   3.797  0.00  0.00    -0.222 NA
ATOM     17  C   UNL     1       7.180   5.093   4.374  0.00  0.00    +0.090 A 
ATOM     18  C   UNL     1       8.527   4.964   4.002  0.00  0.00    +0.030 A 
ATOM     19  C   UNL     1       9.501   5.620   4.764  0.00  0.00    +0.002 A 
ATOM     20  C   UNL     1       9.144   6.389   5.875  0.00  0.00    +0.002 A 
ATOM     21  C   UNL     1       7.806   6.530   6.264  0.00  0.00    +0.028 A 
ATOM     22  C   UNL     1       6.856   5.866   5.488  0.00  0.00    +0.067 A 
ATOM     23  N   UNL     1       5.489   5.781   5.569  0.00  0.00    -0.333 N 
ATOM     24  H   UNL     1       4.894   6.227   6.249  0.00  0.00    +0.168 HD
ENDBRANCH  14  15
ENDBRANCH  11  14
BRANCH  12  25
ATOM     25  C   UNL     1       4.456   3.876   1.354  0.00  0.00    +0.200 C 
BRANCH  25  26
ATOM     26  C   UNL     1       3.826   3.132   0.243  0.00  0.00    +0.145 A 
ATOM     27  C   UNL     1       4.296   2.440  -0.849  0.00  0.00    +0.157 A 
ATOM     28  N   UNL     1       3.246   1.931  -1.570  0.00  0.00    -0.224 NA
ATOM     29  C   UNL     1       2.190   2.324  -0.895  0.00  0.00    +0.308 A 
ATOM     30  O   UNL     1       2.457   3.057   0.221  0.00  0.00    -0.446 OA
ENDBRANCH  25  26
ENDBRANCH  12  25
TORSDOF 4
ENDMDL
