MODEL 1
REMARK VINA RESULT:    -7.636      0.000      0.000
REMARK INTER + INTRA:         -11.284
REMARK INTER:                 -10.315
REMARK INTRA:                  -0.969
REMARK UNBOUND:                -0.969
REMARK  Name = 
REMARK  6 active torsions:
REMARK  status: ('A' for Active; 'I' for Inactive)
REMARK    1  A    between atoms: C_2  and  C_4
REMARK    2  A    between atoms: C_6  and  C_7
REMARK    3  A    between atoms: N_10  and  C_11
REMARK    4  A    between atoms: C_15  and  C_16
REMARK    5  A    between atoms: C_20  and  O_21
REMARK    6  A    between atoms: O_21  and  C_22
REMARK                            x       y       z     vdW  Elec       q    Type
REMARK                         _______ _______ _______ _____ _____    ______ ____
ROOT
ATOM      1  C   UNL     1     -21.119  27.375  24.629  0.00  0.00    +0.067 A 
ATOM      2  C   UNL     1     -19.949  27.874  24.052  0.00  0.00    +0.028 A 
ATOM      3  C   UNL     1     -19.169  27.059  23.229  0.00  0.00    +0.003 A 
ATOM      4  C   UNL     1     -19.554  25.745  22.965  0.00  0.00    +0.009 A 
ATOM      5  C   UNL     1     -20.734  25.214  23.506  0.00  0.00    -0.013 A 
ATOM      6  C   UNL     1     -21.508  26.051  24.333  0.00  0.00    +0.036 A 
ENDROOT
BRANCH   5   7
ATOM      7  C   UNL     1     -21.148  23.826  23.226  0.00  0.00    +0.021 A 
ATOM      8  C   UNL     1     -22.337  23.555  22.523  0.00  0.00    +0.011 A 
ATOM      9  C   UNL     1     -22.735  22.243  22.239  0.00  0.00    +0.004 A 
ATOM     10  C   UNL     1     -21.956  21.168  22.661  0.00  0.00    +0.049 A 
ATOM     11  C   UNL     1     -20.792  21.413  23.383  0.00  0.00    +0.166 A 
ATOM     12  C   UNL     1     -20.382  22.724  23.641  0.00  0.00    +0.173 A 
ATOM     13  F   UNL     1     -19.220  22.917  24.287  0.00  0.00    -0.201 F 
BRANCH  11  14
ATOM     14  O   UNL     1     -20.016  20.350  23.761  0.00  0.00    -0.403 OA
BRANCH  14  15
ATOM     15  C   UNL     1     -20.374  19.901  25.062  0.00  0.00    +0.575 C 
ATOM     16  F   UNL     1     -19.408  20.276  25.930  0.00  0.00    -0.133 F 
ATOM     17  F   UNL     1     -20.462  18.552  25.095  0.00  0.00    -0.133 F 
ATOM     18  F   UNL     1     -21.543  20.431  25.479  0.00  0.00    -0.133 F 
ENDBRANCH  14  15
ENDBRANCH  11  14
ENDBRANCH   5   7
BRANCH   1  22
ATOM     19  C   UNL     1     -23.888  28.961  26.073  0.00  0.00    +0.148 A 
ATOM     20  C   UNL     1     -22.897  29.770  26.673  0.00  0.00    +0.067 A 
ATOM     21  C   UNL     1     -21.673  29.206  26.343  0.00  0.00    +0.130 A 
ATOM     22  N   UNL     1     -21.967  28.169  25.465  0.00  0.00    -0.227 N 
ATOM     23  N   UNL     1     -23.311  27.970  25.384  0.00  0.00    -0.161 NA
BRANCH  19  25
ATOM     24  N   UNL     1     -26.062  27.907  26.093  0.00  0.00    -0.324 N 
ATOM     25  C   UNL     1     -25.354  29.080  26.164  0.00  0.00    +0.262 C 
ATOM     26  O   UNL     1     -25.962  30.136  26.312  0.00  0.00    -0.269 OA
ATOM     27  H   UNL     1     -27.055  27.990  26.273  0.00  0.00    +0.145 HD
ATOM     28  H   UNL     1     -25.633  27.003  26.205  0.00  0.00    +0.145 HD
ENDBRANCH  19  25
BRANCH  21  29
ATOM     29  C   UNL     1     -20.386  29.557  26.876  0.00  0.00    +0.260 C 
ATOM     30  N   UNL     1     -19.724  28.542  27.506  0.00  0.00    -0.324 N 
ATOM     31  O   UNL     1     -19.858  30.659  26.792  0.00  0.00    -0.269 OA
ATOM     32  H   UNL     1     -18.851  28.785  27.957  0.00  0.00    +0.145 HD
ATOM     33  H   UNL     1     -20.175  27.679  27.767  0.00  0.00    +0.145 HD
ENDBRANCH  21  29
ENDBRANCH   1  22
TORSDOF 6
ENDMDL
MODEL 2
REMARK VINA RESULT:    -7.504     15.052     16.504
REMARK INTER + INTRA:         -11.106
REMARK INTER:                  -9.742
REMARK INTRA:                  -1.364
REMARK UNBOUND:                -0.969
REMARK  Name = 
REMARK  6 active torsions:
REMARK  status: ('A' for Active; 'I' for Inactive)
REMARK    1  A    between atoms: C_2  and  C_4
REMARK    2  A    between atoms: C_6  and  C_7
REMARK    3  A    between atoms: N_10  and  C_11
REMARK    4  A    between atoms: C_15  and  C_16
REMARK    5  A    between atoms: C_20  and  O_21
REMARK    6  A    between atoms: O_21  and  C_22
REMARK                            x       y       z     vdW  Elec       q    Type
REMARK                         _______ _______ _______ _____ _____    ______ ____
ROOT
ATOM      1  C   UNL     1     -24.823  19.809  39.007  0.00  0.00    +0.067 A 
ATOM      2  C   UNL     1     -23.486  19.444  38.833  0.00  0.00    +0.028 A 
ATOM      3  C   UNL     1     -23.127  18.095  38.784  0.00  0.00    +0.003 A 
ATOM      4  C   UNL     1     -24.098  17.100  38.896  0.00  0.00    +0.009 A 
ATOM      5  C   UNL     1     -25.454  17.426  39.048  0.00  0.00    -0.013 A 
ATOM      6  C   UNL     1     -25.796  18.791  39.095  0.00  0.00    +0.036 A 
ENDROOT
BRANCH   5   7
ATOM      7  C   UNL     1     -26.485  16.377  39.163  0.00  0.00    +0.021 A 
ATOM      8  C   UNL     1     -26.935  15.942  40.424  0.00  0.00    +0.011 A 
ATOM      9  C   UNL     1     -27.923  14.958  40.548  0.00  0.00    +0.004 A 
ATOM     10  C   UNL     1     -28.478  14.376  39.411  0.00  0.00    +0.049 A 
ATOM     11  C   UNL     1     -28.027  14.771  38.155  0.00  0.00    +0.166 A 
ATOM     12  C   UNL     1     -27.061  15.774  38.033  0.00  0.00    +0.173 A 
ATOM     13  F   UNL     1     -26.699  16.169  36.801  0.00  0.00    -0.201 F 
BRANCH  11  14
ATOM     14  O   UNL     1     -28.607  14.219  37.044  0.00  0.00    -0.403 OA
BRANCH  14  15
ATOM     15  C   UNL     1     -27.811  13.155  36.536  0.00  0.00    +0.575 C 
ATOM     16  F   UNL     1     -27.127  13.603  35.460  0.00  0.00    -0.133 F 
ATOM     17  F   UNL     1     -28.590  12.125  36.134  0.00  0.00    -0.133 F 
ATOM     18  F   UNL     1     -26.920  12.708  37.445  0.00  0.00    -0.133 F 
ENDBRANCH  14  15
ENDBRANCH  11  14
ENDBRANCH   5   7
BRANCH   1  22
ATOM     19  C   UNL     1     -26.050  22.922  40.042  0.00  0.00    +0.148 A 
ATOM     20  C   UNL     1     -26.174  23.145  38.652  0.00  0.00    +0.067 A 
ATOM     21  C   UNL     1     -25.587  22.056  38.024  0.00  0.00    +0.130 A 
ATOM     22  N   UNL     1     -25.252  21.174  39.045  0.00  0.00    -0.227 N 
ATOM     23  N   UNL     1     -25.449  21.748  40.264  0.00  0.00    -0.161 NA
BRANCH  19  25
ATOM     24  N   UNL     1     -27.585  23.437  41.836  0.00  0.00    -0.324 N 
ATOM     25  C   UNL     1     -26.451  23.801  41.155  0.00  0.00    +0.262 C 
ATOM     26  O   UNL     1     -25.837  24.803  41.511  0.00  0.00    -0.269 OA
ATOM     27  H   UNL     1     -27.783  23.979  42.667  0.00  0.00    +0.145 HD
ATOM     28  H   UNL     1     -28.001  22.523  41.754  0.00  0.00    +0.145 HD
ENDBRANCH  19  25
BRANCH  21  29
ATOM     29  C   UNL     1     -25.297  21.917  36.624  0.00  0.00    +0.260 C 
ATOM     30  N   UNL     1     -26.057  20.995  35.963  0.00  0.00    -0.324 N 
ATOM     31  O   UNL     1     -24.455  22.557  36.006  0.00  0.00    -0.269 OA
ATOM     32  H   UNL     1     -25.818  20.824  34.995  0.00  0.00    +0.145 HD
ATOM     33  H   UNL     1     -26.627  20.316  36.444  0.00  0.00    +0.145 HD
ENDBRANCH  21  29
ENDBRANCH   1  22
TORSDOF 6
ENDMDL
MODEL 3
REMARK VINA RESULT:    -7.275      7.970     11.982
REMARK INTER + INTRA:         -10.796
REMARK INTER:                 -10.100
REMARK INTRA:                  -0.695
REMARK UNBOUND:                -0.969
REMARK  Name = 
REMARK  6 active torsions:
REMARK  status: ('A' for Active; 'I' for Inactive)
REMARK    1  A    between atoms: C_2  and  C_4
REMARK    2  A    between atoms: C_6  and  C_7
REMARK    3  A    between atoms: N_10  and  C_11
REMARK    4  A    between atoms: C_15  and  C_16
REMARK    5  A    between atoms: C_20  and  O_21
REMARK    6  A    between atoms: O_21  and  C_22
REMARK                            x       y       z     vdW  Elec       q    Type
REMARK                         _______ _______ _______ _____ _____    ______ ____
ROOT
ATOM      1  C   UNL     1     -18.362  15.782  24.757  0.00  0.00    +0.067 A 
ATOM      2  C   UNL     1     -17.344  16.247  23.922  0.00  0.00    +0.028 A 
ATOM      3  C   UNL     1     -17.322  17.584  23.520  0.00  0.00    +0.003 A 
ATOM      4  C   UNL     1     -18.306  18.471  23.957  0.00  0.00    +0.009 A 
ATOM      5  C   UNL     1     -19.331  18.048  24.815  0.00  0.00    -0.013 A 
ATOM      6  C   UNL     1     -19.337  16.696  25.210  0.00  0.00    +0.036 A 
ENDROOT
BRANCH   5   7
ATOM      7  C   UNL     1     -20.373  18.982  25.283  0.00  0.00    +0.021 A 
ATOM      8  C   UNL     1     -20.578  20.216  24.637  0.00  0.00    +0.011 A 
ATOM      9  C   UNL     1     -21.573  21.107  25.061  0.00  0.00    +0.004 A 
ATOM     10  C   UNL     1     -22.379  20.788  26.151  0.00  0.00    +0.049 A 
ATOM     11  C   UNL     1     -22.173  19.586  26.822  0.00  0.00    +0.166 A 
ATOM     12  C   UNL     1     -21.199  18.686  26.379  0.00  0.00    +0.173 A 
ATOM     13  F   UNL     1     -21.075  17.510  27.017  0.00  0.00    -0.201 F 
BRANCH  11  14
ATOM     14  O   UNL     1     -22.996  19.267  27.868  0.00  0.00    -0.403 OA
BRANCH  14  15
ATOM     15  C   UNL     1     -22.430  19.690  29.103  0.00  0.00    +0.575 C 
ATOM     16  F   UNL     1     -22.587  18.701  30.011  0.00  0.00    -0.133 F 
ATOM     17  F   UNL     1     -23.066  20.788  29.570  0.00  0.00    -0.133 F 
ATOM     18  F   UNL     1     -21.111  19.954  28.993  0.00  0.00    -0.133 F 
ENDBRANCH  14  15
ENDBRANCH  11  14
ENDBRANCH   5   7
BRANCH   1  22
ATOM     19  C   UNL     1     -17.761  12.767  26.438  0.00  0.00    +0.148 A 
ATOM     20  C   UNL     1     -18.551  12.227  25.397  0.00  0.00    +0.067 A 
ATOM     21  C   UNL     1     -19.036  13.305  24.669  0.00  0.00    +0.130 A 
ATOM     22  N   UNL     1     -18.425  14.427  25.216  0.00  0.00    -0.227 N 
ATOM     23  N   UNL     1     -17.733  14.101  26.342  0.00  0.00    -0.161 NA
BRANCH  19  25
ATOM     24  N   UNL     1     -15.791  11.640  27.264  0.00  0.00    -0.324 N 
ATOM     25  C   UNL     1     -17.069  12.062  27.530  0.00  0.00    +0.262 C 
ATOM     26  O   UNL     1     -17.548  11.849  28.640  0.00  0.00    -0.269 OA
ATOM     27  H   UNL     1     -15.286  11.262  28.056  0.00  0.00    +0.145 HD
ATOM     28  H   UNL     1     -15.259  11.974  26.477  0.00  0.00    +0.145 HD
ENDBRANCH  19  25
BRANCH  21  29
ATOM     29  C   UNL     1     -20.035  13.273  23.638  0.00  0.00    +0.260 C 
ATOM     30  N   UNL     1     -20.155  12.081  22.984  0.00  0.00    -0.324 N 
ATOM     31  O   UNL     1     -20.768  14.205  23.330  0.00  0.00    -0.269 OA
ATOM     32  H   UNL     1     -20.797  12.058  22.202  0.00  0.00    +0.145 HD
ATOM     33  H   UNL     1     -19.468  11.347  23.062  0.00  0.00    +0.145 HD
ENDBRANCH  21  29
ENDBRANCH   1  22
TORSDOF 6
ENDMDL
MODEL 4
REMARK VINA RESULT:    -7.050      3.464      6.010
REMARK INTER + INTRA:         -10.492
REMARK INTER:                  -9.248
REMARK INTRA:                  -1.244
REMARK UNBOUND:                -0.969
REMARK  Name = 
REMARK  6 active torsions:
REMARK  status: ('A' for Active; 'I' for Inactive)
REMARK    1  A    between atoms: C_2  and  C_4
REMARK    2  A    between atoms: C_6  and  C_7
REMARK    3  A    between atoms: N_10  and  C_11
REMARK    4  A    between atoms: C_15  and  C_16
REMARK    5  A    between atoms: C_20  and  O_21
REMARK    6  A    between atoms: O_21  and  C_22
REMARK                            x       y       z     vdW  Elec       q    Type
REMARK                         _______ _______ _______ _____ _____    ______ ____
ROOT
ATOM      1  C   UNL     1     -19.872  23.912  23.649  0.00  0.00    +0.067 A 
ATOM      2  C   UNL     1     -20.991  24.250  22.884  0.00  0.00    +0.028 A 
ATOM      3  C   UNL     1     -22.063  23.362  22.777  0.00  0.00    +0.003 A 
ATOM      4  C   UNL     1     -22.036  22.137  23.443  0.00  0.00    +0.009 A 
ATOM      5  C   UNL     1     -20.941  21.771  24.240  0.00  0.00    -0.013 A 
ATOM      6  C   UNL     1     -19.870  22.680  24.335  0.00  0.00    +0.036 A 
ENDROOT
BRANCH   5   7
ATOM      7  C   UNL     1     -20.909  20.477  24.949  0.00  0.00    +0.021 A 
ATOM      8  C   UNL     1     -20.044  19.448  24.533  0.00  0.00    +0.011 A 
ATOM      9  C   UNL     1     -19.992  18.220  25.205  0.00  0.00    +0.004 A 
ATOM     10  C   UNL     1     -20.814  17.989  26.305  0.00  0.00    +0.049 A 
ATOM     11  C   UNL     1     -21.698  18.983  26.715  0.00  0.00    +0.166 A 
ATOM     12  C   UNL     1     -21.727  20.218  26.061  0.00  0.00    +0.173 A 
ATOM     13  F   UNL     1     -22.551  21.171  26.527  0.00  0.00    -0.201 F 
BRANCH  11  14
ATOM     14  O   UNL     1     -22.475  18.758  27.820  0.00  0.00    -0.403 OA
BRANCH  14  15
ATOM     15  C   UNL     1     -21.851  19.277  28.989  0.00  0.00    +0.575 C 
ATOM     16  F   UNL     1     -21.977  18.371  29.984  0.00  0.00    -0.133 F 
ATOM     17  F   UNL     1     -22.455  20.419  29.387  0.00  0.00    -0.133 F 
ATOM     18  F   UNL     1     -20.536  19.514  28.800  0.00  0.00    -0.133 F 
ENDBRANCH  14  15
ENDBRANCH  11  14
ENDBRANCH   5   7
BRANCH   1  22
ATOM     19  C   UNL     1     -16.642  25.265  23.727  0.00  0.00    +0.148 A 
ATOM     20  C   UNL     1     -17.259  26.251  24.531  0.00  0.00    +0.067 A 
ATOM     21  C   UNL     1     -18.621  25.983  24.510  0.00  0.00    +0.130 A 
ATOM     22  N   UNL     1     -18.753  24.790  23.809  0.00  0.00    -0.227 N 
ATOM     23  N   UNL     1     -17.564  24.416  23.261  0.00  0.00    -0.161 NA
BRANCH  19  25
ATOM     24  N   UNL     1     -14.348  24.930  24.405  0.00  0.00    -0.324 N 
ATOM     25  C   UNL     1     -15.221  25.129  23.366  0.00  0.00    +0.262 C 
ATOM     26  O   UNL     1     -14.785  25.164  22.218  0.00  0.00    -0.269 OA
ATOM     27  H   UNL     1     -13.395  24.722  24.135  0.00  0.00    +0.145 HD
ATOM     28  H   UNL     1     -14.650  24.662  25.327  0.00  0.00    +0.145 HD
ENDBRANCH  19  25
BRANCH  21  29
ATOM     29  C   UNL     1     -19.675  26.816  25.017  0.00  0.00    +0.260 C 
ATOM     30  N   UNL     1     -19.668  27.000  26.370  0.00  0.00    -0.324 N 
ATOM     31  O   UNL     1     -20.536  27.364  24.340  0.00  0.00    -0.269 OA
ATOM     32  H   UNL     1     -20.446  27.518  26.758  0.00  0.00    +0.145 HD
ATOM     33  H   UNL     1     -19.109  26.437  26.991  0.00  0.00    +0.145 HD
ENDBRANCH  21  29
ENDBRANCH   1  22
TORSDOF 6
ENDMDL
MODEL 5
REMARK VINA RESULT:    -7.028     15.200     16.560
REMARK INTER + INTRA:         -10.463
REMARK INTER:                  -9.271
REMARK INTRA:                  -1.192
REMARK UNBOUND:                -0.969
REMARK  Name = 
REMARK  6 active torsions:
REMARK  status: ('A' for Active; 'I' for Inactive)
REMARK    1  A    between atoms: C_2  and  C_4
REMARK    2  A    between atoms: C_6  and  C_7
REMARK    3  A    between atoms: N_10  and  C_11
REMARK    4  A    between atoms: C_15  and  C_16
REMARK    5  A    between atoms: C_20  and  O_21
REMARK    6  A    between atoms: O_21  and  C_22
REMARK                            x       y       z     vdW  Elec       q    Type
REMARK                         _______ _______ _______ _____ _____    ______ ____
ROOT
ATOM      1  C   UNL     1     -24.343  20.128  38.961  0.00  0.00    +0.067 A 
ATOM      2  C   UNL     1     -23.002  19.893  39.269  0.00  0.00    +0.028 A 
ATOM      3  C   UNL     1     -22.491  18.593  39.237  0.00  0.00    +0.003 A 
ATOM      4  C   UNL     1     -23.309  17.520  38.885  0.00  0.00    +0.009 A 
ATOM      5  C   UNL     1     -24.655  17.718  38.545  0.00  0.00    -0.013 A 
ATOM      6  C   UNL     1     -25.152  19.035  38.583  0.00  0.00    +0.036 A 
ENDROOT
BRANCH   5   7
ATOM      7  C   UNL     1     -25.524  16.586  38.168  0.00  0.00    +0.021 A 
ATOM      8  C   UNL     1     -26.126  16.530  36.897  0.00  0.00    +0.011 A 
ATOM      9  C   UNL     1     -26.942  15.456  36.521  0.00  0.00    +0.004 A 
ATOM     10  C   UNL     1     -27.184  14.415  37.414  0.00  0.00    +0.049 A 
ATOM     11  C   UNL     1     -26.622  14.465  38.686  0.00  0.00    +0.166 A 
ATOM     12  C   UNL     1     -25.785  15.524  39.049  0.00  0.00    +0.173 A 
ATOM     13  F   UNL     1     -25.213  15.502  40.265  0.00  0.00    -0.201 F 
BRANCH  11  14
ATOM     14  O   UNL     1     -26.836  13.418  39.542  0.00  0.00    -0.403 OA
BRANCH  14  15
ATOM     15  C   UNL     1     -27.978  13.657  40.356  0.00  0.00    +0.575 C 
ATOM     16  F   UNL     1     -27.590  13.673  41.650  0.00  0.00    -0.133 F 
ATOM     17  F   UNL     1     -28.888  12.667  40.207  0.00  0.00    -0.133 F 
ATOM     18  F   UNL     1     -28.562  14.841  40.076  0.00  0.00    -0.133 F 
ENDBRANCH  14  15
ENDBRANCH  11  14
ENDBRANCH   5   7
BRANCH   1  22
ATOM     19  C   UNL     1     -25.833  23.150  39.919  0.00  0.00    +0.148 A 
ATOM     20  C   UNL     1     -26.076  23.273  38.532  0.00  0.00    +0.067 A 
ATOM     21  C   UNL     1     -25.417  22.216  37.920  0.00  0.00    +0.130 A 
ATOM     22  N   UNL     1     -24.916  21.439  38.959  0.00  0.00    -0.227 N 
ATOM     23  N   UNL     1     -25.092  22.062  40.156  0.00  0.00    -0.161 NA
BRANCH  19  25
ATOM     24  N   UNL     1     -25.545  25.217  41.137  0.00  0.00    -0.324 N 
ATOM     25  C   UNL     1     -26.250  24.047  41.011  0.00  0.00    +0.262 C 
ATOM     26  O   UNL     1     -27.178  23.823  41.783  0.00  0.00    -0.269 OA
ATOM     27  H   UNL     1     -25.914  25.874  41.812  0.00  0.00    +0.145 HD
ATOM     28  H   UNL     1     -24.939  25.568  40.413  0.00  0.00    +0.145 HD
ENDBRANCH  19  25
BRANCH  21  29
ATOM     29  C   UNL     1     -25.210  22.024  36.512  0.00  0.00    +0.260 C 
ATOM     30  N   UNL     1     -26.033  21.106  35.925  0.00  0.00    -0.324 N 
ATOM     31  O   UNL     1     -24.387  22.618  35.827  0.00  0.00    -0.269 OA
ATOM     32  H   UNL     1     -25.854  20.897  34.951  0.00  0.00    +0.145 HD
ATOM     33  H   UNL     1     -26.595  20.461  36.459  0.00  0.00    +0.145 HD
ENDBRANCH  21  29
ENDBRANCH   1  22
TORSDOF 6
ENDMDL
MODEL 6
REMARK VINA RESULT:    -6.965     14.379     15.648
REMARK INTER + INTRA:         -10.378
REMARK INTER:                  -9.113
REMARK INTRA:                  -1.265
REMARK UNBOUND:                -0.969
REMARK  Name = 
REMARK  6 active torsions:
REMARK  status: ('A' for Active; 'I' for Inactive)
REMARK    1  A    between atoms: C_2  and  C_4
REMARK    2  A    between atoms: C_6  and  C_7
REMARK    3  A    between atoms: N_10  and  C_11
REMARK    4  A    between atoms: C_15  and  C_16
REMARK    5  A    between atoms: C_20  and  O_21
REMARK    6  A    between atoms: O_21  and  C_22
REMARK                            x       y       z     vdW  Elec       q    Type
REMARK                         _______ _______ _______ _____ _____    ______ ____
ROOT
ATOM      1  C   UNL     1     -25.068  24.857  40.372  0.00  0.00    +0.067 A 
ATOM      2  C   UNL     1     -25.715  25.016  41.599  0.00  0.00    +0.028 A 
ATOM      3  C   UNL     1     -26.646  24.068  42.030  0.00  0.00    +0.003 A 
ATOM      4  C   UNL     1     -26.929  22.948  41.248  0.00  0.00    +0.009 A 
ATOM      5  C   UNL     1     -26.283  22.741  40.021  0.00  0.00    -0.013 A 
ATOM      6  C   UNL     1     -25.347  23.707  39.604  0.00  0.00    +0.036 A 
ENDROOT
BRANCH   5   7
ATOM      7  C   UNL     1     -26.576  21.556  39.192  0.00  0.00    +0.021 A 
ATOM      8  C   UNL     1     -27.382  21.661  38.042  0.00  0.00    +0.011 A 
ATOM      9  C   UNL     1     -27.657  20.548  37.238  0.00  0.00    +0.004 A 
ATOM     10  C   UNL     1     -27.140  19.299  37.571  0.00  0.00    +0.049 A 
ATOM     11  C   UNL     1     -26.366  19.167  38.720  0.00  0.00    +0.166 A 
ATOM     12  C   UNL     1     -26.069  20.285  39.505  0.00  0.00    +0.173 A 
ATOM     13  F   UNL     1     -25.266  20.124  40.571  0.00  0.00    -0.201 F 
BRANCH  11  14
ATOM     14  O   UNL     1     -25.833  17.942  39.018  0.00  0.00    -0.403 OA
BRANCH  14  15
ATOM     15  C   UNL     1     -24.686  17.682  38.215  0.00  0.00    +0.575 C 
ATOM     16  F   UNL     1     -23.945  16.726  38.819  0.00  0.00    -0.133 F 
ATOM     17  F   UNL     1     -23.922  18.791  38.099  0.00  0.00    -0.133 F 
ATOM     18  F   UNL     1     -25.018  17.242  36.983  0.00  0.00    -0.133 F 
ENDBRANCH  14  15
ENDBRANCH  11  14
ENDBRANCH   5   7
BRANCH   1  22
ATOM     19  C   UNL     1     -22.060  26.450  39.544  0.00  0.00    +0.148 A 
ATOM     20  C   UNL     1     -22.898  27.580  39.395  0.00  0.00    +0.067 A 
ATOM     21  C   UNL     1     -24.201  27.126  39.538  0.00  0.00    +0.130 A 
ATOM     22  N   UNL     1     -24.092  25.785  39.888  0.00  0.00    -0.227 N 
ATOM     23  N   UNL     1     -22.800  25.365  39.796  0.00  0.00    -0.161 NA
BRANCH  19  25
ATOM     24  N   UNL     1     -20.082  25.132  39.114  0.00  0.00    -0.324 N 
ATOM     25  C   UNL     1     -20.595  26.367  39.420  0.00  0.00    +0.262 C 
ATOM     26  O   UNL     1     -19.827  27.316  39.552  0.00  0.00    -0.269 OA
ATOM     27  H   UNL     1     -19.089  25.113  38.917  0.00  0.00    +0.145 HD
ATOM     28  H   UNL     1     -20.650  24.376  38.769  0.00  0.00    +0.145 HD
ENDBRANCH  19  25
BRANCH  21  29
ATOM     29  C   UNL     1     -25.407  27.862  39.278  0.00  0.00    +0.260 C 
ATOM     30  N   UNL     1     -25.968  27.642  38.053  0.00  0.00    -0.324 N 
ATOM     31  O   UNL     1     -25.952  28.632  40.060  0.00  0.00    -0.269 OA
ATOM     32  H   UNL     1     -26.773  28.208  37.817  0.00  0.00    +0.145 HD
ATOM     33  H   UNL     1     -25.477  27.172  37.308  0.00  0.00    +0.145 HD
ENDBRANCH  21  29
ENDBRANCH   1  22
TORSDOF 6
ENDMDL
MODEL 7
REMARK VINA RESULT:    -6.956      3.768      5.645
REMARK INTER + INTRA:         -10.365
REMARK INTER:                  -9.104
REMARK INTRA:                  -1.261
REMARK UNBOUND:                -0.969
REMARK  Name = 
REMARK  6 active torsions:
REMARK  status: ('A' for Active; 'I' for Inactive)
REMARK    1  A    between atoms: C_2  and  C_4
REMARK    2  A    between atoms: C_6  and  C_7
REMARK    3  A    between atoms: N_10  and  C_11
REMARK    4  A    between atoms: C_15  and  C_16
REMARK    5  A    between atoms: C_20  and  O_21
REMARK    6  A    between atoms: O_21  and  C_22
REMARK                            x       y       z     vdW  Elec       q    Type
REMARK                         _______ _______ _______ _____ _____    ______ ____
ROOT
ATOM      1  C   UNL     1     -19.916  23.875  23.717  0.00  0.00    +0.067 A 
ATOM      2  C   UNL     1     -20.949  24.141  22.816  0.00  0.00    +0.028 A 
ATOM      3  C   UNL     1     -21.946  23.188  22.592  0.00  0.00    +0.003 A 
ATOM      4  C   UNL     1     -21.928  21.971  23.272  0.00  0.00    +0.009 A 
ATOM      5  C   UNL     1     -20.921  21.677  24.202  0.00  0.00    -0.013 A 
ATOM      6  C   UNL     1     -19.924  22.650  24.415  0.00  0.00    +0.036 A 
ENDROOT
BRANCH   5   7
ATOM      7  C   UNL     1     -20.899  20.392  24.927  0.00  0.00    +0.021 A 
ATOM      8  C   UNL     1     -20.041  19.351  24.526  0.00  0.00    +0.011 A 
ATOM      9  C   UNL     1     -19.999  18.132  25.213  0.00  0.00    +0.004 A 
ATOM     10  C   UNL     1     -20.825  17.921  26.314  0.00  0.00    +0.049 A 
ATOM     11  C   UNL     1     -21.702  18.926  26.710  0.00  0.00    +0.166 A 
ATOM     12  C   UNL     1     -21.721  20.153  26.040  0.00  0.00    +0.173 A 
ATOM     13  F   UNL     1     -22.539  21.118  26.494  0.00  0.00    -0.201 F 
BRANCH  11  14
ATOM     14  O   UNL     1     -22.482  18.721  27.817  0.00  0.00    -0.403 OA
BRANCH  14  15
ATOM     15  C   UNL     1     -21.852  19.242  28.982  0.00  0.00    +0.575 C 
ATOM     16  F   UNL     1     -22.014  18.358  29.991  0.00  0.00    -0.133 F 
ATOM     17  F   UNL     1     -22.425  20.409  29.355  0.00  0.00    -0.133 F 
ATOM     18  F   UNL     1     -20.530  19.436  28.799  0.00  0.00    -0.133 F 
ENDBRANCH  14  15
ENDBRANCH  11  14
ENDBRANCH   5   7
BRANCH   1  22
ATOM     19  C   UNL     1     -18.146  26.796  24.497  0.00  0.00    +0.148 A 
ATOM     20  C   UNL     1     -17.047  26.058  24.003  0.00  0.00    +0.067 A 
ATOM     21  C   UNL     1     -17.509  24.772  23.764  0.00  0.00    +0.130 A 
ATOM     22  N   UNL     1     -18.878  24.820  24.001  0.00  0.00    -0.227 N 
ATOM     23  N   UNL     1     -19.235  26.021  24.533  0.00  0.00    -0.161 NA
BRANCH  19  25
ATOM     24  N   UNL     1     -18.928  28.435  26.091  0.00  0.00    -0.324 N 
ATOM     25  C   UNL     1     -18.183  28.193  24.964  0.00  0.00    +0.262 C 
ATOM     26  O   UNL     1     -17.590  29.125  24.430  0.00  0.00    -0.269 OA
ATOM     27  H   UNL     1     -18.850  29.371  26.467  0.00  0.00    +0.145 HD
ATOM     28  H   UNL     1     -19.244  27.701  26.704  0.00  0.00    +0.145 HD
ENDBRANCH  19  25
BRANCH  21  29
ATOM     29  C   UNL     1     -16.722  23.615  23.441  0.00  0.00    +0.260 C 
ATOM     30  N   UNL     1     -16.082  23.036  24.499  0.00  0.00    -0.324 N 
ATOM     31  O   UNL     1     -16.604  23.124  22.325  0.00  0.00    -0.269 OA
ATOM     32  H   UNL     1     -15.459  22.267  24.284  0.00  0.00    +0.145 HD
ATOM     33  H   UNL     1     -15.990  23.491  25.394  0.00  0.00    +0.145 HD
ENDBRANCH  21  29
ENDBRANCH   1  22
TORSDOF 6
ENDMDL
MODEL 8
REMARK VINA RESULT:    -6.897      8.243     11.962
REMARK INTER + INTRA:         -10.285
REMARK INTER:                  -9.172
REMARK INTRA:                  -1.114
REMARK UNBOUND:                -0.969
REMARK  Name = 
REMARK  6 active torsions:
REMARK  status: ('A' for Active; 'I' for Inactive)
REMARK    1  A    between atoms: C_2  and  C_4
REMARK    2  A    between atoms: C_6  and  C_7
REMARK    3  A    between atoms: N_10  and  C_11
REMARK    4  A    between atoms: C_15  and  C_16
REMARK    5  A    between atoms: C_20  and  O_21
REMARK    6  A    between atoms: O_21  and  C_22
REMARK                            x       y       z     vdW  Elec       q    Type
REMARK                         _______ _______ _______ _____ _____    ______ ____
ROOT
ATOM      1  C   UNL     1     -17.720  15.321  24.738  0.00  0.00    +0.067 A 
ATOM      2  C   UNL     1     -17.780  15.054  23.369  0.00  0.00    +0.028 A 
ATOM      3  C   UNL     1     -18.607  15.817  22.541  0.00  0.00    +0.003 A 
ATOM      4  C   UNL     1     -19.367  16.860  23.068  0.00  0.00    +0.009 A 
ATOM      5  C   UNL     1     -19.316  17.175  24.434  0.00  0.00    -0.013 A 
ATOM      6  C   UNL     1     -18.477  16.394  25.253  0.00  0.00    +0.036 A 
ENDROOT
BRANCH   5   7
ATOM      7  C   UNL     1     -20.116  18.279  24.997  0.00  0.00    +0.021 A 
ATOM      8  C   UNL     1     -20.082  19.563  24.419  0.00  0.00    +0.011 A 
ATOM      9  C   UNL     1     -20.848  20.617  24.933  0.00  0.00    +0.004 A 
ATOM     10  C   UNL     1     -21.658  20.414  26.048  0.00  0.00    +0.049 A 
ATOM     11  C   UNL     1     -21.684  19.160  26.652  0.00  0.00    +0.166 A 
ATOM     12  C   UNL     1     -20.941  18.103  26.119  0.00  0.00    +0.173 A 
ATOM     13  F   UNL     1     -21.043  16.893  26.697  0.00  0.00    -0.201 F 
BRANCH  11  14
ATOM     14  O   UNL     1     -22.512  18.963  27.724  0.00  0.00    -0.403 OA
BRANCH  14  15
ATOM     15  C   UNL     1     -21.849  19.286  28.941  0.00  0.00    +0.575 C 
ATOM     16  F   UNL     1     -22.402  20.410  29.449  0.00  0.00    -0.133 F 
ATOM     17  F   UNL     1     -20.537  19.530  28.721  0.00  0.00    -0.133 F 
ATOM     18  F   UNL     1     -21.969  18.305  29.860  0.00  0.00    -0.133 F 
ENDBRANCH  14  15
ENDBRANCH  11  14
ENDBRANCH   5   7
BRANCH   1  22
ATOM     19  C   UNL     1     -16.453  13.581  27.502  0.00  0.00    +0.148 A 
ATOM     20  C   UNL     1     -15.212  13.819  26.869  0.00  0.00    +0.067 A 
ATOM     21  C   UNL     1     -15.501  14.389  25.636  0.00  0.00    +0.130 A 
ATOM     22  N   UNL     1     -16.878  14.584  25.631  0.00  0.00    -0.227 N 
ATOM     23  N   UNL     1     -17.452  14.007  26.722  0.00  0.00    -0.161 NA
BRANCH  19  25
ATOM     24  N   UNL     1     -16.283  11.640  28.930  0.00  0.00    -0.324 N 
ATOM     25  C   UNL     1     -16.716  12.935  28.800  0.00  0.00    +0.262 C 
ATOM     26  O   UNL     1     -17.269  13.478  29.752  0.00  0.00    -0.269 OA
ATOM     27  H   UNL     1     -16.363  11.248  29.860  0.00  0.00    +0.145 HD
ATOM     28  H   UNL     1     -15.629  11.216  28.291  0.00  0.00    +0.145 HD
ENDBRANCH  19  25
BRANCH  21  29
ATOM     29  C   UNL     1     -14.584  14.629  24.558  0.00  0.00    +0.260 C 
ATOM     30  N   UNL     1     -14.133  15.914  24.456  0.00  0.00    -0.324 N 
ATOM     31  O   UNL     1     -14.183  13.787  23.764  0.00  0.00    -0.269 OA
ATOM     32  H   UNL     1     -13.548  16.125  23.658  0.00  0.00    +0.145 HD
ATOM     33  H   UNL     1     -14.560  16.680  24.954  0.00  0.00    +0.145 HD
ENDBRANCH  21  29
ENDBRANCH   1  22
TORSDOF 6
ENDMDL
MODEL 9
REMARK VINA RESULT:    -6.676     15.548     17.664
REMARK INTER + INTRA:          -9.986
REMARK INTER:                  -9.019
REMARK INTRA:                  -0.968
REMARK UNBOUND:                -0.969
REMARK  Name = 
REMARK  6 active torsions:
REMARK  status: ('A' for Active; 'I' for Inactive)
REMARK    1  A    between atoms: C_2  and  C_4
REMARK    2  A    between atoms: C_6  and  C_7
REMARK    3  A    between atoms: N_10  and  C_11
REMARK    4  A    between atoms: C_15  and  C_16
REMARK    5  A    between atoms: C_20  and  O_21
REMARK    6  A    between atoms: O_21  and  C_22
REMARK                            x       y       z     vdW  Elec       q    Type
REMARK                         _______ _______ _______ _____ _____    ______ ____
ROOT
ATOM      1  C   UNL     1     -26.058  19.575  38.202  0.00  0.00    +0.067 A 
ATOM      2  C   UNL     1     -26.041  19.901  36.844  0.00  0.00    +0.028 A 
ATOM      3  C   UNL     1     -26.041  21.239  36.443  0.00  0.00    +0.003 A 
ATOM      4  C   UNL     1     -26.044  22.262  37.391  0.00  0.00    +0.009 A 
ATOM      5  C   UNL     1     -26.037  21.975  38.764  0.00  0.00    -0.013 A 
ATOM      6  C   UNL     1     -26.037  20.621  39.149  0.00  0.00    +0.036 A 
ENDROOT
BRANCH   5   7
ATOM      7  C   UNL     1     -26.037  23.053  39.772  0.00  0.00    +0.021 A 
ATOM      8  C   UNL     1     -26.833  22.960  40.929  0.00  0.00    +0.011 A 
ATOM      9  C   UNL     1     -26.832  23.969  41.900  0.00  0.00    +0.004 A 
ATOM     10  C   UNL     1     -26.041  25.103  41.730  0.00  0.00    +0.049 A 
ATOM     11  C   UNL     1     -25.269  25.229  40.579  0.00  0.00    +0.166 A 
ATOM     12  C   UNL     1     -25.250  24.207  39.625  0.00  0.00    +0.173 A 
ATOM     13  F   UNL     1     -24.443  24.342  38.559  0.00  0.00    -0.201 F 
BRANCH  11  14
ATOM     14  O   UNL     1     -24.468  26.330  40.441  0.00  0.00    -0.403 OA
BRANCH  14  15
ATOM     15  C   UNL     1     -25.171  27.389  39.801  0.00  0.00    +0.575 C 
ATOM     16  F   UNL     1     -24.297  28.382  39.522  0.00  0.00    -0.133 F 
ATOM     17  F   UNL     1     -26.126  27.892  40.616  0.00  0.00    -0.133 F 
ATOM     18  F   UNL     1     -25.740  26.993  38.643  0.00  0.00    -0.133 F 
ENDBRANCH  14  15
ENDBRANCH  11  14
ENDBRANCH   5   7
BRANCH   1  22
ATOM     19  C   UNL     1     -26.981  16.341  39.182  0.00  0.00    +0.148 A 
ATOM     20  C   UNL     1     -25.703  16.344  39.787  0.00  0.00    +0.067 A 
ATOM     21  C   UNL     1     -25.079  17.517  39.387  0.00  0.00    +0.130 A 
ATOM     22  N   UNL     1     -26.039  18.223  38.671  0.00  0.00    -0.227 N 
ATOM     23  N   UNL     1     -27.151  17.463  38.473  0.00  0.00    -0.161 NA
BRANCH  19  25
ATOM     24  N   UNL     1     -28.448  14.925  40.477  0.00  0.00    -0.324 N 
ATOM     25  C   UNL     1     -28.020  15.298  39.228  0.00  0.00    +0.262 C 
ATOM     26  O   UNL     1     -28.525  14.770  38.242  0.00  0.00    -0.269 OA
ATOM     27  H   UNL     1     -29.240  14.296  40.493  0.00  0.00    +0.145 HD
ATOM     28  H   UNL     1     -28.254  15.466  41.304  0.00  0.00    +0.145 HD
ENDBRANCH  19  25
BRANCH  21  29
ATOM     29  C   UNL     1     -23.703  17.876  39.586  0.00  0.00    +0.260 C 
ATOM     30  N   UNL     1     -22.813  17.229  38.777  0.00  0.00    -0.324 N 
ATOM     31  O   UNL     1     -23.293  18.704  40.390  0.00  0.00    -0.269 OA
ATOM     32  H   UNL     1     -21.832  17.408  38.952  0.00  0.00    +0.145 HD
ATOM     33  H   UNL     1     -23.063  16.417  38.234  0.00  0.00    +0.145 HD
ENDBRANCH  21  29
ENDBRANCH   1  22
TORSDOF 6
ENDMDL
