MODEL 1
REMARK VINA RESULT:    -6.344      0.000      0.000
REMARK INTER + INTRA:          -9.372
REMARK INTER:                  -8.569
REMARK INTRA:                  -0.803
REMARK UNBOUND:                -0.803
REMARK  Name = 
REMARK  7 active torsions:
REMARK  status: ('A' for Active; 'I' for Inactive)
REMARK    1  A    between atoms: C_1  and  C_2
REMARK    2  A    between atoms: C_2  and  O_3
REMARK    3  A    between atoms: O_3  and  C_4
REMARK    4  A    between atoms: C_4  and  C_6
REMARK    5  A    between atoms: C_11  and  S_12
REMARK    6  A    between atoms: S_12  and  N_15
REMARK    7  A    between atoms: N_15  and  C_16
REMARK                            x       y       z     vdW  Elec       q    Type
REMARK                         _______ _______ _______ _____ _____    ______ ____
ROOT
ATOM      1  S   UNL     1     -25.556  -3.549   9.181  0.00  0.00    +0.073 S 
ATOM      2  O   UNL     1     -25.254  -4.707   8.370  0.00  0.00    -0.150 OA
ATOM      3  O   UNL     1     -24.934  -2.259   8.976  0.00  0.00    -0.150 OA
ENDROOT
BRANCH   1   9
ATOM      4  C   UNL     1     -24.067  -4.061  11.452  0.00  0.00    +0.086 A 
ATOM      5  C   UNL     1     -23.940  -4.327  12.824  0.00  0.00    +0.017 A 
ATOM      6  C   UNL     1     -25.070  -4.592  13.598  0.00  0.00    +0.001 A 
ATOM      7  C   UNL     1     -26.334  -4.591  13.010  0.00  0.00    +0.002 A 
ATOM      8  C   UNL     1     -26.473  -4.306  11.650  0.00  0.00    +0.029 A 
ATOM      9  C   UNL     1     -25.338  -4.026  10.872  0.00  0.00    +0.122 A 
BRANCH   4  10
ATOM     10  C   UNL     1     -22.813  -3.856  10.702  0.00  0.00    +0.341 C 
ATOM     11  O   UNL     1     -22.246  -2.780  10.620  0.00  0.00    -0.245 OA
BRANCH  10  12
ATOM     12  O   UNL     1     -22.383  -5.056  10.253  0.00  0.00    -0.461 OA
BRANCH  12  14
ATOM     13  C   UNL     1     -20.547  -5.777  11.653  0.00  0.00    +0.048 C 
ATOM     14  C   UNL     1     -20.963  -5.258  10.290  0.00  0.00    +0.229 C 
ENDBRANCH  12  14
ENDBRANCH  10  12
ENDBRANCH   4  10
ENDBRANCH   1   9
BRANCH   1  15
ATOM     15  N   UNL     1     -27.244  -3.234   9.113  0.00  0.00    -0.215 N 
ATOM     16  H   UNL     1     -27.333  -2.280   8.744  0.00  0.00    +0.174 HD
BRANCH  15  17
ATOM     17  C   UNL     1     -27.969  -4.136   8.247  0.00  0.00    +0.066 A 
ATOM     18  C   UNL     1     -28.573  -5.272   8.793  0.00  0.00    +0.029 A 
ATOM     19  C   UNL     1     -29.250  -6.168   7.965  0.00  0.00    +0.040 A 
ATOM     20  C   UNL     1     -29.320  -5.923   6.597  0.00  0.00    +0.125 A 
ATOM     21  F   UNL     1     -29.973  -6.785   5.807  0.00  0.00    -0.205 F 
ATOM     22  C   UNL     1     -28.728  -4.798   6.035  0.00  0.00    +0.060 A 
ATOM     23  C   UNL     1     -28.051  -3.904   6.863  0.00  0.00    +0.066 A 
ATOM     24 CL   UNL     1     -27.349  -2.491   6.159  0.00  0.00    -0.081 Cl
ENDBRANCH  15  17
ENDBRANCH   1  15
TORSDOF 6
ENDMDL
MODEL 2
REMARK VINA RESULT:    -6.122      3.297      6.726
REMARK INTER + INTRA:          -9.073
REMARK INTER:                  -9.242
REMARK INTRA:                   0.169
REMARK UNBOUND:                -0.803
REMARK  Name = 
REMARK  7 active torsions:
REMARK  status: ('A' for Active; 'I' for Inactive)
REMARK    1  A    between atoms: C_1  and  C_2
REMARK    2  A    between atoms: C_2  and  O_3
REMARK    3  A    between atoms: O_3  and  C_4
REMARK    4  A    between atoms: C_4  and  C_6
REMARK    5  A    between atoms: C_11  and  S_12
REMARK    6  A    between atoms: S_12  and  N_15
REMARK    7  A    between atoms: N_15  and  C_16
REMARK                            x       y       z     vdW  Elec       q    Type
REMARK                         _______ _______ _______ _____ _____    ______ ____
ROOT
ATOM      1  S   UNL     1     -26.347  -3.243   8.773  0.00  0.00    +0.073 S 
ATOM      2  O   UNL     1     -26.343  -2.145   7.833  0.00  0.00    -0.150 OA
ATOM      3  O   UNL     1     -25.156  -3.988   9.120  0.00  0.00    -0.150 OA
ENDROOT
BRANCH   1   9
ATOM      4  C   UNL     1     -27.898  -4.535   6.885  0.00  0.00    +0.086 A 
ATOM      5  C   UNL     1     -28.807  -5.527   6.488  0.00  0.00    +0.017 A 
ATOM      6  C   UNL     1     -29.436  -6.329   7.441  0.00  0.00    +0.001 A 
ATOM      7  C   UNL     1     -29.161  -6.147   8.796  0.00  0.00    +0.002 A 
ATOM      8  C   UNL     1     -28.242  -5.177   9.199  0.00  0.00    +0.029 A 
ATOM      9  C   UNL     1     -27.597  -4.379   8.241  0.00  0.00    +0.122 A 
BRANCH   4  10
ATOM     10  C   UNL     1     -27.330  -3.695   5.813  0.00  0.00    +0.341 C 
ATOM     11  O   UNL     1     -26.312  -3.976   5.206  0.00  0.00    -0.245 OA
BRANCH  10  12
ATOM     12  O   UNL     1     -28.184  -2.675   5.572  0.00  0.00    -0.461 OA
BRANCH  12  14
ATOM     13  C   UNL     1     -29.994  -2.616   3.970  0.00  0.00    +0.048 C 
ATOM     14  C   UNL     1     -28.503  -2.448   4.192  0.00  0.00    +0.229 C 
ENDBRANCH  12  14
ENDBRANCH  10  12
ENDBRANCH   4  10
ENDBRANCH   1   9
BRANCH   1  15
ATOM     15  N   UNL     1     -26.974  -2.700  10.278  0.00  0.00    -0.215 N 
ATOM     16  H   UNL     1     -27.930  -3.072  10.330  0.00  0.00    +0.174 HD
BRANCH  15  17
ATOM     17  C   UNL     1     -26.229  -3.174  11.422  0.00  0.00    +0.066 A 
ATOM     18  C   UNL     1     -26.656  -4.326  12.088  0.00  0.00    +0.029 A 
ATOM     19  C   UNL     1     -25.965  -4.778  13.213  0.00  0.00    +0.040 A 
ATOM     20  C   UNL     1     -24.851  -4.077  13.664  0.00  0.00    +0.125 A 
ATOM     21  F   UNL     1     -24.190  -4.517  14.743  0.00  0.00    -0.205 F 
ATOM     22  C   UNL     1     -24.409  -2.931  13.014  0.00  0.00    +0.060 A 
ATOM     23  C   UNL     1     -25.101  -2.480  11.891  0.00  0.00    +0.066 A 
ATOM     24 CL   UNL     1     -24.522  -1.074  11.071  0.00  0.00    -0.081 Cl
ENDBRANCH  15  17
ENDBRANCH   1  15
TORSDOF 6
ENDMDL
MODEL 3
REMARK VINA RESULT:    -5.842      2.295      3.113
REMARK INTER + INTRA:          -8.694
REMARK INTER:                  -8.133
REMARK INTRA:                  -0.560
REMARK UNBOUND:                -0.803
REMARK  Name = 
REMARK  7 active torsions:
REMARK  status: ('A' for Active; 'I' for Inactive)
REMARK    1  A    between atoms: C_1  and  C_2
REMARK    2  A    between atoms: C_2  and  O_3
REMARK    3  A    between atoms: O_3  and  C_4
REMARK    4  A    between atoms: C_4  and  C_6
REMARK    5  A    between atoms: C_11  and  S_12
REMARK    6  A    between atoms: S_12  and  N_15
REMARK    7  A    between atoms: N_15  and  C_16
REMARK                            x       y       z     vdW  Elec       q    Type
REMARK                         _______ _______ _______ _____ _____    ______ ____
ROOT
ATOM      1  S   UNL     1     -24.664  -3.985   9.517  0.00  0.00    +0.073 S 
ATOM      2  O   UNL     1     -24.736  -5.400   9.232  0.00  0.00    -0.150 OA
ATOM      3  O   UNL     1     -23.737  -3.095   8.855  0.00  0.00    -0.150 OA
ENDROOT
BRANCH   1   9
ATOM      4  C   UNL     1     -24.424  -2.554  11.870  0.00  0.00    +0.086 A 
ATOM      5  C   UNL     1     -24.388  -2.455  13.268  0.00  0.00    +0.017 A 
ATOM      6  C   UNL     1     -24.359  -3.607  14.056  0.00  0.00    +0.001 A 
ATOM      7  C   UNL     1     -24.366  -4.864  13.453  0.00  0.00    +0.002 A 
ATOM      8  C   UNL     1     -24.424  -4.973  12.062  0.00  0.00    +0.029 A 
ATOM      9  C   UNL     1     -24.468  -3.816  11.269  0.00  0.00    +0.122 A 
BRANCH   4  10
ATOM     10  C   UNL     1     -24.390  -1.285  11.118  0.00  0.00    +0.341 C 
ATOM     11  O   UNL     1     -25.373  -0.780  10.605  0.00  0.00    -0.245 OA
BRANCH  10  12
ATOM     12  O   UNL     1     -23.145  -0.765  11.215  0.00  0.00    -0.461 OA
BRANCH  12  14
ATOM     13  C   UNL     1     -22.898   1.158  12.659  0.00  0.00    +0.048 C 
ATOM     14  C   UNL     1     -23.073   0.667  11.235  0.00  0.00    +0.229 C 
ENDBRANCH  12  14
ENDBRANCH  10  12
ENDBRANCH   4  10
ENDBRANCH   1   9
BRANCH   1  15
ATOM     15  N   UNL     1     -26.208  -3.276   9.260  0.00  0.00    -0.215 N 
ATOM     16  H   UNL     1     -26.046  -2.482   8.629  0.00  0.00    +0.174 HD
BRANCH  15  17
ATOM     17  C   UNL     1     -27.163  -4.170   8.645  0.00  0.00    +0.066 A 
ATOM     18  C   UNL     1     -27.367  -4.109   7.263  0.00  0.00    +0.029 A 
ATOM     19  C   UNL     1     -28.307  -4.945   6.660  0.00  0.00    +0.040 A 
ATOM     20  C   UNL     1     -29.037  -5.836   7.440  0.00  0.00    +0.125 A 
ATOM     21  F   UNL     1     -29.937  -6.638   6.856  0.00  0.00    -0.205 F 
ATOM     22  C   UNL     1     -28.847  -5.913   8.815  0.00  0.00    +0.060 A 
ATOM     23  C   UNL     1     -27.908  -5.077   9.417  0.00  0.00    +0.066 A 
ATOM     24 CL   UNL     1     -27.656  -5.206  11.121  0.00  0.00    -0.081 Cl
ENDBRANCH  15  17
ENDBRANCH   1  15
TORSDOF 6
ENDMDL
MODEL 4
REMARK VINA RESULT:    -5.672      3.652      7.064
REMARK INTER + INTRA:          -8.465
REMARK INTER:                  -7.914
REMARK INTRA:                  -0.550
REMARK UNBOUND:                -0.803
REMARK  Name = 
REMARK  7 active torsions:
REMARK  status: ('A' for Active; 'I' for Inactive)
REMARK    1  A    between atoms: C_1  and  C_2
REMARK    2  A    between atoms: C_2  and  O_3
REMARK    3  A    between atoms: O_3  and  C_4
REMARK    4  A    between atoms: C_4  and  C_6
REMARK    5  A    between atoms: C_11  and  S_12
REMARK    6  A    between atoms: S_12  and  N_15
REMARK    7  A    between atoms: N_15  and  C_16
REMARK                            x       y       z     vdW  Elec       q    Type
REMARK                         _______ _______ _______ _____ _____    ______ ____
ROOT
ATOM      1  S   UNL     1     -26.914  -3.234   8.739  0.00  0.00    +0.073 S 
ATOM      2  O   UNL     1     -25.765  -4.110   8.769  0.00  0.00    -0.150 OA
ATOM      3  O   UNL     1     -28.265  -3.712   8.551  0.00  0.00    -0.150 OA
ENDROOT
BRANCH   1   9
ATOM      4  C   UNL     1     -26.964  -2.140   6.200  0.00  0.00    +0.086 A 
ATOM      5  C   UNL     1     -26.792  -1.080   5.298  0.00  0.00    +0.017 A 
ATOM      6  C   UNL     1     -26.207   0.116   5.718  0.00  0.00    +0.001 A 
ATOM      7  C   UNL     1     -25.792   0.261   7.041  0.00  0.00    +0.002 A 
ATOM      8  C   UNL     1     -25.978  -0.780   7.952  0.00  0.00    +0.029 A 
ATOM      9  C   UNL     1     -26.579  -1.979   7.535  0.00  0.00    +0.122 A 
BRANCH   4  10
ATOM     10  C   UNL     1     -27.533  -3.386   5.652  0.00  0.00    +0.341 C 
ATOM     11  O   UNL     1     -26.870  -4.382   5.418  0.00  0.00    -0.245 OA
BRANCH  10  12
ATOM     12  O   UNL     1     -28.876  -3.249   5.584  0.00  0.00    -0.461 OA
BRANCH  12  14
ATOM     13  C   UNL     1     -30.111  -2.029   3.900  0.00  0.00    +0.048 C 
ATOM     14  C   UNL     1     -29.441  -3.339   4.268  0.00  0.00    +0.229 C 
ENDBRANCH  12  14
ENDBRANCH  10  12
ENDBRANCH   4  10
ENDBRANCH   1   9
BRANCH   1  15
ATOM     15  N   UNL     1     -26.972  -2.325  10.196  0.00  0.00    -0.215 N 
ATOM     16  H   UNL     1     -27.969  -2.241  10.429  0.00  0.00    +0.174 HD
BRANCH  15  17
ATOM     17  C   UNL     1     -26.287  -2.955  11.301  0.00  0.00    +0.066 A 
ATOM     18  C   UNL     1     -26.856  -4.080  11.907  0.00  0.00    +0.029 A 
ATOM     19  C   UNL     1     -26.221  -4.681  12.994  0.00  0.00    +0.040 A 
ATOM     20  C   UNL     1     -25.024  -4.156  13.469  0.00  0.00    +0.125 A 
ATOM     21  F   UNL     1     -24.418  -4.739  14.512  0.00  0.00    -0.205 F 
ATOM     22  C   UNL     1     -24.442  -3.040  12.880  0.00  0.00    +0.060 A 
ATOM     23  C   UNL     1     -25.076  -2.440  11.793  0.00  0.00    +0.066 A 
ATOM     24 CL   UNL     1     -24.326  -1.074  11.046  0.00  0.00    -0.081 Cl
ENDBRANCH  15  17
ENDBRANCH   1  15
TORSDOF 6
ENDMDL
MODEL 5
REMARK VINA RESULT:    -5.590      4.040      7.156
REMARK INTER + INTRA:          -8.354
REMARK INTER:                  -7.776
REMARK INTRA:                  -0.577
REMARK UNBOUND:                -0.803
REMARK  Name = 
REMARK  7 active torsions:
REMARK  status: ('A' for Active; 'I' for Inactive)
REMARK    1  A    between atoms: C_1  and  C_2
REMARK    2  A    between atoms: C_2  and  O_3
REMARK    3  A    between atoms: O_3  and  C_4
REMARK    4  A    between atoms: C_4  and  C_6
REMARK    5  A    between atoms: C_11  and  S_12
REMARK    6  A    between atoms: S_12  and  N_15
REMARK    7  A    between atoms: N_15  and  C_16
REMARK                            x       y       z     vdW  Elec       q    Type
REMARK                         _______ _______ _______ _____ _____    ______ ____
ROOT
ATOM      1  S   UNL     1     -26.884  -2.536   8.347  0.00  0.00    +0.073 S 
ATOM      2  O   UNL     1     -27.677  -1.562   7.631  0.00  0.00    -0.150 OA
ATOM      3  O   UNL     1     -25.510  -2.833   8.009  0.00  0.00    -0.150 OA
ENDROOT
BRANCH   1   9
ATOM      4  C   UNL     1     -28.218  -4.655   7.176  0.00  0.00    +0.086 A 
ATOM      5  C   UNL     1     -28.844  -5.910   7.221  0.00  0.00    +0.017 A 
ATOM      6  C   UNL     1     -29.089  -6.532   8.446  0.00  0.00    +0.001 A 
ATOM      7  C   UNL     1     -28.711  -5.906   9.633  0.00  0.00    +0.002 A 
ATOM      8  C   UNL     1     -28.069  -4.667   9.598  0.00  0.00    +0.029 A 
ATOM      9  C   UNL     1     -27.808  -4.046   8.366  0.00  0.00    +0.122 A 
BRANCH   4  10
ATOM     10  C   UNL     1     -28.057  -4.046   5.842  0.00  0.00    +0.341 C 
ATOM     11  O   UNL     1     -27.035  -4.130   5.183  0.00  0.00    -0.245 OA
BRANCH  10  12
ATOM     12  O   UNL     1     -29.243  -3.515   5.469  0.00  0.00    -0.461 OA
BRANCH  12  14
ATOM     13  C   UNL     1     -30.140  -1.852   3.960  0.00  0.00    +0.048 C 
ATOM     14  C   UNL     1     -29.345  -3.137   4.089  0.00  0.00    +0.229 C 
ENDBRANCH  12  14
ENDBRANCH  10  12
ENDBRANCH   4  10
ENDBRANCH   1   9
BRANCH   1  15
ATOM     15  N   UNL     1     -26.843  -2.120  10.014  0.00  0.00    -0.215 N 
ATOM     16  H   UNL     1     -26.639  -2.995  10.512  0.00  0.00    +0.174 HD
BRANCH  15  17
ATOM     17  C   UNL     1     -25.825  -1.149  10.345  0.00  0.00    +0.066 A 
ATOM     18  C   UNL     1     -25.999   0.184   9.960  0.00  0.00    +0.029 A 
ATOM     19  C   UNL     1     -25.011   1.127  10.246  0.00  0.00    +0.040 A 
ATOM     20  C   UNL     1     -23.857   0.733  10.915  0.00  0.00    +0.125 A 
ATOM     21  F   UNL     1     -22.913   1.642  11.189  0.00  0.00    -0.205 F 
ATOM     22  C   UNL     1     -23.666  -0.587  11.308  0.00  0.00    +0.060 A 
ATOM     23  C   UNL     1     -24.653  -1.528  11.022  0.00  0.00    +0.066 A 
ATOM     24 CL   UNL     1     -24.421  -3.158  11.545  0.00  0.00    -0.081 Cl
ENDBRANCH  15  17
ENDBRANCH   1  15
TORSDOF 6
ENDMDL
MODEL 6
REMARK VINA RESULT:    -5.572      1.784      2.410
REMARK INTER + INTRA:          -8.330
REMARK INTER:                  -7.772
REMARK INTRA:                  -0.558
REMARK UNBOUND:                -0.803
REMARK  Name = 
REMARK  7 active torsions:
REMARK  status: ('A' for Active; 'I' for Inactive)
REMARK    1  A    between atoms: C_1  and  C_2
REMARK    2  A    between atoms: C_2  and  O_3
REMARK    3  A    between atoms: O_3  and  C_4
REMARK    4  A    between atoms: C_4  and  C_6
REMARK    5  A    between atoms: C_11  and  S_12
REMARK    6  A    between atoms: S_12  and  N_15
REMARK    7  A    between atoms: N_15  and  C_16
REMARK                            x       y       z     vdW  Elec       q    Type
REMARK                         _______ _______ _______ _____ _____    ______ ____
ROOT
ATOM      1  S   UNL     1     -25.394  -4.594  10.514  0.00  0.00    +0.073 S 
ATOM      2  O   UNL     1     -25.263  -5.146  11.843  0.00  0.00    -0.150 OA
ATOM      3  O   UNL     1     -25.143  -5.360   9.314  0.00  0.00    -0.150 OA
ENDROOT
BRANCH   1   9
ATOM      4  C   UNL     1     -23.034  -3.176  10.268  0.00  0.00    +0.086 A 
ATOM      5  C   UNL     1     -22.306  -1.986  10.115  0.00  0.00    +0.017 A 
ATOM      6  C   UNL     1     -22.951  -0.751  10.194  0.00  0.00    +0.001 A 
ATOM      7  C   UNL     1     -24.324  -0.695  10.425  0.00  0.00    +0.002 A 
ATOM      8  C   UNL     1     -25.061  -1.874  10.558  0.00  0.00    +0.029 A 
ATOM      9  C   UNL     1     -24.417  -3.118  10.465  0.00  0.00    +0.122 A 
BRANCH   4  10
ATOM     10  C   UNL     1     -22.259  -4.431  10.233  0.00  0.00    +0.341 C 
ATOM     11  O   UNL     1     -22.065  -5.073   9.216  0.00  0.00    -0.245 OA
BRANCH  10  12
ATOM     12  O   UNL     1     -21.737  -4.646  11.461  0.00  0.00    -0.461 OA
BRANCH  12  14
ATOM     13  C   UNL     1     -20.352  -6.458  12.264  0.00  0.00    +0.048 C 
ATOM     14  C   UNL     1     -20.397  -5.158  11.484  0.00  0.00    +0.229 C 
ENDBRANCH  12  14
ENDBRANCH  10  12
ENDBRANCH   4  10
ENDBRANCH   1   9
BRANCH   1  15
ATOM     15  N   UNL     1     -26.985  -3.976  10.311  0.00  0.00    -0.215 N 
ATOM     16  H   UNL     1     -26.870  -2.975  10.117  0.00  0.00    +0.174 HD
BRANCH  15  17
ATOM     17  C   UNL     1     -27.707  -4.582   9.215  0.00  0.00    +0.066 A 
ATOM     18  C   UNL     1     -28.481  -5.722   9.453  0.00  0.00    +0.029 A 
ATOM     19  C   UNL     1     -29.160  -6.335   8.399  0.00  0.00    +0.040 A 
ATOM     20  C   UNL     1     -29.062  -5.806   7.116  0.00  0.00    +0.125 A 
ATOM     21  F   UNL     1     -29.717  -6.398   6.109  0.00  0.00    -0.205 F 
ATOM     22  C   UNL     1     -28.300  -4.673   6.861  0.00  0.00    +0.060 A 
ATOM     23  C   UNL     1     -27.621  -4.060   7.913  0.00  0.00    +0.066 A 
ATOM     24 CL   UNL     1     -26.705  -2.632   7.590  0.00  0.00    -0.081 Cl
ENDBRANCH  15  17
ENDBRANCH   1  15
TORSDOF 6
ENDMDL
MODEL 7
REMARK VINA RESULT:    -5.572      1.966      3.270
REMARK INTER + INTRA:          -8.329
REMARK INTER:                  -7.940
REMARK INTRA:                  -0.389
REMARK UNBOUND:                -0.803
REMARK  Name = 
REMARK  7 active torsions:
REMARK  status: ('A' for Active; 'I' for Inactive)
REMARK    1  A    between atoms: C_1  and  C_2
REMARK    2  A    between atoms: C_2  and  O_3
REMARK    3  A    between atoms: O_3  and  C_4
REMARK    4  A    between atoms: C_4  and  C_6
REMARK    5  A    between atoms: C_11  and  S_12
REMARK    6  A    between atoms: S_12  and  N_15
REMARK    7  A    between atoms: N_15  and  C_16
REMARK                            x       y       z     vdW  Elec       q    Type
REMARK                         _______ _______ _______ _____ _____    ______ ____
ROOT
ATOM      1  S   UNL     1     -25.198  -4.771   9.699  0.00  0.00    +0.073 S 
ATOM      2  O   UNL     1     -25.072  -5.168  11.083  0.00  0.00    -0.150 OA
ATOM      3  O   UNL     1     -25.154  -5.712   8.601  0.00  0.00    -0.150 OA
ENDROOT
BRANCH   1   9
ATOM      4  C   UNL     1     -23.787  -2.484  10.348  0.00  0.00    +0.086 A 
ATOM      5  C   UNL     1     -22.749  -1.562  10.146  0.00  0.00    +0.017 A 
ATOM      6  C   UNL     1     -21.955  -1.635   9.001  0.00  0.00    +0.001 A 
ATOM      7  C   UNL     1     -22.190  -2.628   8.051  0.00  0.00    +0.002 A 
ATOM      8  C   UNL     1     -23.207  -3.563   8.253  0.00  0.00    +0.029 A 
ATOM      9  C   UNL     1     -23.998  -3.500   9.411  0.00  0.00    +0.122 A 
BRANCH   4  10
ATOM     10  C   UNL     1     -24.614  -2.291  11.554  0.00  0.00    +0.341 C 
ATOM     11  O   UNL     1     -25.806  -2.040  11.520  0.00  0.00    -0.245 OA
BRANCH  10  12
ATOM     12  O   UNL     1     -23.853  -2.556  12.640  0.00  0.00    -0.461 OA
BRANCH  12  14
ATOM     13  C   UNL     1     -24.331  -4.325  14.218  0.00  0.00    +0.048 C 
ATOM     14  C   UNL     1     -24.574  -2.877  13.838  0.00  0.00    +0.229 C 
ENDBRANCH  12  14
ENDBRANCH  10  12
ENDBRANCH   4  10
ENDBRANCH   1   9
BRANCH   1  15
ATOM     15  N   UNL     1     -26.676  -3.922   9.485  0.00  0.00    -0.215 N 
ATOM     16  H   UNL     1     -26.418  -3.014   9.080  0.00  0.00    +0.174 HD
BRANCH  15  17
ATOM     17  C   UNL     1     -27.602  -4.582   8.592  0.00  0.00    +0.066 A 
ATOM     18  C   UNL     1     -28.409  -5.613   9.083  0.00  0.00    +0.029 A 
ATOM     19  C   UNL     1     -29.285  -6.280   8.226  0.00  0.00    +0.040 A 
ATOM     20  C   UNL     1     -29.349  -5.914   6.885  0.00  0.00    +0.125 A 
ATOM     21  F   UNL     1     -30.194  -6.556   6.068  0.00  0.00    -0.205 F 
ATOM     22  C   UNL     1     -28.557  -4.891   6.379  0.00  0.00    +0.060 A 
ATOM     23  C   UNL     1     -27.681  -4.225   7.235  0.00  0.00    +0.066 A 
ATOM     24 CL   UNL     1     -26.726  -2.932   6.603  0.00  0.00    -0.081 Cl
ENDBRANCH  15  17
ENDBRANCH   1  15
TORSDOF 6
ENDMDL
MODEL 8
REMARK VINA RESULT:    -5.453      3.279      6.689
REMARK INTER + INTRA:          -8.169
REMARK INTER:                  -7.453
REMARK INTRA:                  -0.716
REMARK UNBOUND:                -0.803
REMARK  Name = 
REMARK  7 active torsions:
REMARK  status: ('A' for Active; 'I' for Inactive)
REMARK    1  A    between atoms: C_1  and  C_2
REMARK    2  A    between atoms: C_2  and  O_3
REMARK    3  A    between atoms: O_3  and  C_4
REMARK    4  A    between atoms: C_4  and  C_6
REMARK    5  A    between atoms: C_11  and  S_12
REMARK    6  A    between atoms: S_12  and  N_15
REMARK    7  A    between atoms: N_15  and  C_16
REMARK                            x       y       z     vdW  Elec       q    Type
REMARK                         _______ _______ _______ _____ _____    ______ ____
ROOT
ATOM      1  S   UNL     1     -26.180  -3.689   8.367  0.00  0.00    +0.073 S 
ATOM      2  O   UNL     1     -26.695  -2.674   9.259  0.00  0.00    -0.150 OA
ATOM      3  O   UNL     1     -25.059  -3.464   7.481  0.00  0.00    -0.150 OA
ENDROOT
BRANCH   1   9
ATOM      4  C   UNL     1     -27.980  -3.614   6.270  0.00  0.00    +0.086 A 
ATOM      5  C   UNL     1     -28.988  -4.179   5.474  0.00  0.00    +0.017 A 
ATOM      6  C   UNL     1     -29.582  -5.387   5.840  0.00  0.00    +0.001 A 
ATOM      7  C   UNL     1     -29.174  -6.040   7.002  0.00  0.00    +0.002 A 
ATOM      8  C   UNL     1     -28.158  -5.497   7.790  0.00  0.00    +0.029 A 
ATOM      9  C   UNL     1     -27.548  -4.289   7.416  0.00  0.00    +0.122 A 
BRANCH   4  10
ATOM     10  C   UNL     1     -27.455  -2.305   5.839  0.00  0.00    +0.341 C 
ATOM     11  O   UNL     1     -26.649  -2.168   4.935  0.00  0.00    -0.245 OA
BRANCH  10  12
ATOM     12  O   UNL     1     -28.103  -1.337   6.525  0.00  0.00    -0.461 OA
BRANCH  12  14
ATOM     13  C   UNL     1     -26.891   0.573   7.381  0.00  0.00    +0.048 C 
ATOM     14  C   UNL     1     -27.700   0.007   6.230  0.00  0.00    +0.229 C 
ENDBRANCH  12  14
ENDBRANCH  10  12
ENDBRANCH   4  10
ENDBRANCH   1   9
BRANCH   1  15
ATOM     15  N   UNL     1     -25.742  -5.077   9.280  0.00  0.00    -0.215 N 
ATOM     16  H   UNL     1     -24.893  -5.444   8.834  0.00  0.00    +0.174 HD
BRANCH  15  17
ATOM     17  C   UNL     1     -25.453  -4.793  10.667  0.00  0.00    +0.066 A 
ATOM     18  C   UNL     1     -26.476  -4.899  11.615  0.00  0.00    +0.029 A 
ATOM     19  C   UNL     1     -26.219  -4.598  12.953  0.00  0.00    +0.040 A 
ATOM     20  C   UNL     1     -24.943  -4.194  13.335  0.00  0.00    +0.125 A 
ATOM     21  F   UNL     1     -24.702  -3.909  14.622  0.00  0.00    -0.205 F 
ATOM     22  C   UNL     1     -23.914  -4.085  12.409  0.00  0.00    +0.060 A 
ATOM     23  C   UNL     1     -24.171  -4.385  11.072  0.00  0.00    +0.066 A 
ATOM     24 CL   UNL     1     -22.875  -4.280   9.934  0.00  0.00    -0.081 Cl
ENDBRANCH  15  17
ENDBRANCH   1  15
TORSDOF 6
ENDMDL
MODEL 9
REMARK VINA RESULT:    -5.245      3.577      6.961
REMARK INTER + INTRA:          -7.887
REMARK INTER:                  -7.114
REMARK INTRA:                  -0.773
REMARK UNBOUND:                -0.803
REMARK  Name = 
REMARK  7 active torsions:
REMARK  status: ('A' for Active; 'I' for Inactive)
REMARK    1  A    between atoms: C_1  and  C_2
REMARK    2  A    between atoms: C_2  and  O_3
REMARK    3  A    between atoms: O_3  and  C_4
REMARK    4  A    between atoms: C_4  and  C_6
REMARK    5  A    between atoms: C_11  and  S_12
REMARK    6  A    between atoms: S_12  and  N_15
REMARK    7  A    between atoms: N_15  and  C_16
REMARK                            x       y       z     vdW  Elec       q    Type
REMARK                         _______ _______ _______ _____ _____    ______ ____
ROOT
ATOM      1  S   UNL     1     -27.001  -3.769   8.459  0.00  0.00    +0.073 S 
ATOM      2  O   UNL     1     -28.421  -3.982   8.287  0.00  0.00    -0.150 OA
ATOM      3  O   UNL     1     -26.454  -2.613   9.133  0.00  0.00    -0.150 OA
ENDROOT
BRANCH   1   9
ATOM      4  C   UNL     1     -26.528  -2.962   5.858  0.00  0.00    +0.086 A 
ATOM      5  C   UNL     1     -25.832  -3.027   4.641  0.00  0.00    +0.017 A 
ATOM      6  C   UNL     1     -24.903  -4.044   4.414  0.00  0.00    +0.001 A 
ATOM      7  C   UNL     1     -24.662  -5.000   5.399  0.00  0.00    +0.002 A 
ATOM      8  C   UNL     1     -25.333  -4.932   6.621  0.00  0.00    +0.029 A 
ATOM      9  C   UNL     1     -26.257  -3.902   6.857  0.00  0.00    +0.122 A 
BRANCH   4  10
ATOM     10  C   UNL     1     -27.535  -1.891   5.985  0.00  0.00    +0.341 C 
ATOM     11  O   UNL     1     -27.279  -0.773   6.394  0.00  0.00    -0.245 OA
BRANCH  10  12
ATOM     12  O   UNL     1     -28.701  -2.340   5.469  0.00  0.00    -0.461 OA
BRANCH  12  14
ATOM     13  C   UNL     1     -29.363  -2.613   3.160  0.00  0.00    +0.048 C 
ATOM     14  C   UNL     1     -29.175  -1.642   4.309  0.00  0.00    +0.229 C 
ENDBRANCH  12  14
ENDBRANCH  10  12
ENDBRANCH   4  10
ENDBRANCH   1   9
BRANCH   1  15
ATOM     15  N   UNL     1     -26.321  -5.116   9.282  0.00  0.00    -0.215 N 
ATOM     16  H   UNL     1     -25.500  -5.390   8.730  0.00  0.00    +0.174 HD
BRANCH  15  17
ATOM     17  C   UNL     1     -25.897  -4.818  10.631  0.00  0.00    +0.066 A 
ATOM     18  C   UNL     1     -26.826  -4.895  11.673  0.00  0.00    +0.029 A 
ATOM     19  C   UNL     1     -26.439  -4.582  12.976  0.00  0.00    +0.040 A 
ATOM     20  C   UNL     1     -25.127  -4.194  13.230  0.00  0.00    +0.125 A 
ATOM     21  F   UNL     1     -24.760  -3.896  14.484  0.00  0.00    -0.205 F 
ATOM     22  C   UNL     1     -24.189  -4.113  12.209  0.00  0.00    +0.060 A 
ATOM     23  C   UNL     1     -24.576  -4.426  10.906  0.00  0.00    +0.066 A 
ATOM     24 CL   UNL     1     -23.393  -4.356   9.650  0.00  0.00    -0.081 Cl
ENDBRANCH  15  17
ENDBRANCH   1  15
TORSDOF 6
ENDMDL
