MODEL 1
REMARK VINA RESULT:    -7.546      0.000      0.000
REMARK INTER + INTRA:          -8.715
REMARK INTER:                  -8.429
REMARK INTRA:                  -0.286
REMARK UNBOUND:                -0.286
REMARK  Name = 
REMARK  2 active torsions:
REMARK  status: ('A' for Active; 'I' for Inactive)
REMARK    1  A    between atoms: N_8  and  C_9
REMARK    2  A    between atoms: C_9  and  C_10
REMARK                            x       y       z     vdW  Elec       q    Type
REMARK                         _______ _______ _______ _____ _____    ______ ____
ROOT
ATOM      1  C   UNL     1     -19.034   0.119  19.328  0.00  0.00    +0.120 C 
ENDROOT
BRANCH   1   2
ATOM      2  C   UNL     1     -17.776  -0.598  19.778  0.00  0.00    -0.025 A 
ATOM      3  C   UNL     1     -17.720  -2.011  19.773  0.00  0.00    +0.005 A 
ATOM      4  C   UNL     1     -16.570  -2.717  20.160  0.00  0.00    +0.001 A 
ATOM      5  C   UNL     1     -15.437  -2.036  20.581  0.00  0.00    +0.004 A 
ATOM      6  C   UNL     1     -15.494  -0.652  20.632  0.00  0.00    -0.035 A 
ATOM      7  C   UNL     1     -16.654   0.084  20.264  0.00  0.00    -0.010 A 
ATOM      8  C   UNL     1     -16.371   1.499  20.507  0.00  0.00    -0.014 A 
ATOM      9  C   UNL     1     -17.152   2.640  20.403  0.00  0.00    +0.009 A 
ATOM     10  C   UNL     1     -16.594   3.886  20.720  0.00  0.00    +0.001 A 
ATOM     11  C   UNL     1     -15.265   3.992  21.153  0.00  0.00    +0.000 A 
ATOM     12  C   UNL     1     -14.475   2.854  21.286  0.00  0.00    +0.004 A 
ATOM     13  C   UNL     1     -15.040   1.626  20.968  0.00  0.00    -0.035 A 
ATOM     14  C   UNL     1     -14.382   0.272  21.076  0.00  0.00    +0.071 C 
ENDBRANCH   1   2
BRANCH   1  22
ATOM     15  C   UNL     1     -19.338   3.789  11.795  0.00  0.00    +0.039 A 
ATOM     16  C   UNL     1     -20.226   4.088  12.793  0.00  0.00    +0.116 A 
ATOM     17  N   UNL     1     -20.275   3.434  13.968  0.00  0.00    -0.223 NA
ATOM     18  C   UNL     1     -19.400   2.432  14.170  0.00  0.00    +0.218 A 
ATOM     19  N   UNL     1     -19.455   1.717  15.370  0.00  0.00    -0.297 N 
ATOM     20  C   UNL     1     -18.195   1.043  15.713  0.00  0.00    +0.123 C 
ATOM     21  C   UNL     1     -18.358   0.200  16.998  0.00  0.00    +0.103 C 
ATOM     22  N   UNL     1     -18.875   0.986  18.142  0.00  0.00    -0.295 NA
ATOM     23  C   UNL     1     -20.176   1.582  17.740  0.00  0.00    +0.103 C 
ATOM     24  C   UNL     1     -20.063   2.467  16.479  0.00  0.00    +0.123 C 
ATOM     25  N   UNL     1     -18.497   2.074  13.239  0.00  0.00    -0.223 NA
ATOM     26  C   UNL     1     -18.484   2.756  12.078  0.00  0.00    +0.116 A 
ENDBRANCH   1  22
TORSDOF 2
ENDMDL
MODEL 2
REMARK VINA RESULT:    -7.275      2.098      3.781
REMARK INTER + INTRA:          -8.412
REMARK INTER:                  -8.009
REMARK INTRA:                  -0.403
REMARK UNBOUND:                -0.286
REMARK  Name = 
REMARK  2 active torsions:
REMARK  status: ('A' for Active; 'I' for Inactive)
REMARK    1  A    between atoms: N_8  and  C_9
REMARK    2  A    between atoms: C_9  and  C_10
REMARK                            x       y       z     vdW  Elec       q    Type
REMARK                         _______ _______ _______ _____ _____    ______ ____
ROOT
ATOM      1  C   UNL     1     -17.993  -1.107  18.515  0.00  0.00    +0.120 C 
ENDROOT
BRANCH   1   2
ATOM      2  C   UNL     1     -17.636  -0.689  19.928  0.00  0.00    -0.025 A 
ATOM      3  C   UNL     1     -16.284  -0.497  20.296  0.00  0.00    +0.005 A 
ATOM      4  C   UNL     1     -15.907  -0.089  21.584  0.00  0.00    +0.001 A 
ATOM      5  C   UNL     1     -16.868   0.126  22.561  0.00  0.00    +0.004 A 
ATOM      6  C   UNL     1     -18.194  -0.102  22.227  0.00  0.00    -0.035 A 
ATOM      7  C   UNL     1     -18.598  -0.534  20.934  0.00  0.00    -0.010 A 
ATOM      8  C   UNL     1     -20.047  -0.731  20.970  0.00  0.00    -0.014 A 
ATOM      9  C   UNL     1     -20.950  -1.212  20.032  0.00  0.00    +0.009 A 
ATOM     10  C   UNL     1     -22.308  -1.297  20.367  0.00  0.00    +0.001 A 
ATOM     11  C   UNL     1     -22.764  -0.917  21.637  0.00  0.00    +0.000 A 
ATOM     12  C   UNL     1     -21.867  -0.456  22.597  0.00  0.00    +0.004 A 
ATOM     13  C   UNL     1     -20.525  -0.376  22.253  0.00  0.00    -0.035 A 
ATOM     14  C   UNL     1     -19.386   0.056  23.144  0.00  0.00    +0.071 C 
ENDBRANCH   1   2
BRANCH   1  22
ATOM     15  C   UNL     1     -19.502   4.024  12.058  0.00  0.00    +0.039 A 
ATOM     16  C   UNL     1     -20.204   4.096  13.232  0.00  0.00    +0.116 A 
ATOM     17  N   UNL     1     -20.065   3.214  14.238  0.00  0.00    -0.223 NA
ATOM     18  C   UNL     1     -19.186   2.208  14.080  0.00  0.00    +0.218 A 
ATOM     19  N   UNL     1     -19.049   1.261  15.099  0.00  0.00    -0.297 N 
ATOM     20  C   UNL     1     -17.762   0.554  15.079  0.00  0.00    +0.123 C 
ATOM     21  C   UNL     1     -17.719  -0.538  16.172  0.00  0.00    +0.103 C 
ATOM     22  N   UNL     1     -18.022  -0.012  17.523  0.00  0.00    -0.295 NA
ATOM     23  C   UNL     1     -19.361   0.630  17.478  0.00  0.00    +0.103 C 
ATOM     24  C   UNL     1     -19.448   1.757  16.424  0.00  0.00    +0.123 C 
ATOM     25  N   UNL     1     -18.460   2.064  12.956  0.00  0.00    -0.223 NA
ATOM     26  C   UNL     1     -18.631   2.970  11.974  0.00  0.00    +0.116 A 
ENDBRANCH   1  22
TORSDOF 2
ENDMDL
MODEL 3
REMARK VINA RESULT:    -7.215      2.858      4.266
REMARK INTER + INTRA:          -8.344
REMARK INTER:                  -8.320
REMARK INTRA:                  -0.025
REMARK UNBOUND:                -0.286
REMARK  Name = 
REMARK  2 active torsions:
REMARK  status: ('A' for Active; 'I' for Inactive)
REMARK    1  A    between atoms: N_8  and  C_9
REMARK    2  A    between atoms: C_9  and  C_10
REMARK                            x       y       z     vdW  Elec       q    Type
REMARK                         _______ _______ _______ _____ _____    ______ ____
ROOT
ATOM      1  C   UNL     1     -18.959  -0.514  19.620  0.00  0.00    +0.120 C 
ENDROOT
BRANCH   1   2
ATOM      2  C   UNL     1     -20.143  -0.923  20.473  0.00  0.00    -0.025 A 
ATOM      3  C   UNL     1     -21.442  -0.973  19.915  0.00  0.00    +0.005 A 
ATOM      4  C   UNL     1     -22.564  -1.366  20.660  0.00  0.00    +0.001 A 
ATOM      5  C   UNL     1     -22.433  -1.711  21.998  0.00  0.00    +0.004 A 
ATOM      6  C   UNL     1     -21.173  -1.624  22.568  0.00  0.00    -0.035 A 
ATOM      7  C   UNL     1     -20.025  -1.209  21.839  0.00  0.00    -0.010 A 
ATOM      8  C   UNL     1     -18.899  -1.175  22.773  0.00  0.00    -0.014 A 
ATOM      9  C   UNL     1     -17.578  -0.775  22.633  0.00  0.00    +0.009 A 
ATOM     10  C   UNL     1     -16.717  -0.850  23.736  0.00  0.00    +0.001 A 
ATOM     11  C   UNL     1     -17.174  -1.309  24.979  0.00  0.00    +0.000 A 
ATOM     12  C   UNL     1     -18.503  -1.690  25.143  0.00  0.00    +0.004 A 
ATOM     13  C   UNL     1     -19.346  -1.612  24.042  0.00  0.00    -0.035 A 
ATOM     14  C   UNL     1     -20.819  -1.936  24.006  0.00  0.00    +0.071 C 
ENDBRANCH   1   2
BRANCH   1  22
ATOM     15  C   UNL     1     -19.641   3.262  12.165  0.00  0.00    +0.039 A 
ATOM     16  C   UNL     1     -18.676   2.326  12.428  0.00  0.00    +0.116 A 
ATOM     17  N   UNL     1     -18.469   1.791  13.645  0.00  0.00    -0.223 NA
ATOM     18  C   UNL     1     -19.257   2.199  14.656  0.00  0.00    +0.218 A 
ATOM     19  N   UNL     1     -19.038   1.681  15.936  0.00  0.00    -0.297 N 
ATOM     20  C   UNL     1     -20.213   1.761  16.814  0.00  0.00    +0.123 C 
ATOM     21  C   UNL     1     -19.871   1.258  18.235  0.00  0.00    +0.103 C 
ATOM     22  N   UNL     1     -19.289  -0.104  18.239  0.00  0.00    -0.295 NA
ATOM     23  C   UNL     1     -18.074  -0.089  17.384  0.00  0.00    +0.103 C 
ATOM     24  C   UNL     1     -18.368   0.373  15.939  0.00  0.00    +0.123 C 
ATOM     25  N   UNL     1     -20.226   3.117  14.482  0.00  0.00    -0.223 NA
ATOM     26  C   UNL     1     -20.397   3.626  13.248  0.00  0.00    +0.116 A 
ENDBRANCH   1  22
TORSDOF 2
ENDMDL
MODEL 4
REMARK VINA RESULT:    -7.052      2.201      3.559
REMARK INTER + INTRA:          -8.163
REMARK INTER:                  -8.187
REMARK INTRA:                   0.024
REMARK UNBOUND:                -0.286
REMARK  Name = 
REMARK  2 active torsions:
REMARK  status: ('A' for Active; 'I' for Inactive)
REMARK    1  A    between atoms: N_8  and  C_9
REMARK    2  A    between atoms: C_9  and  C_10
REMARK                            x       y       z     vdW  Elec       q    Type
REMARK                         _______ _______ _______ _____ _____    ______ ____
ROOT
ATOM      1  C   UNL     1     -18.034  -0.943  19.022  0.00  0.00    +0.120 C 
ENDROOT
BRANCH   1   2
ATOM      2  C   UNL     1     -19.032  -1.106  20.151  0.00  0.00    -0.025 A 
ATOM      3  C   UNL     1     -20.421  -1.103  19.882  0.00  0.00    +0.005 A 
ATOM      4  C   UNL     1     -21.382  -1.272  20.891  0.00  0.00    +0.001 A 
ATOM      5  C   UNL     1     -20.990  -1.435  22.213  0.00  0.00    +0.004 A 
ATOM      6  C   UNL     1     -19.634  -1.396  22.496  0.00  0.00    -0.035 A 
ATOM      7  C   UNL     1     -18.643  -1.206  21.493  0.00  0.00    -0.010 A 
ATOM      8  C   UNL     1     -17.344  -1.153  22.163  0.00  0.00    -0.014 A 
ATOM      9  C   UNL     1     -16.060  -0.912  21.697  0.00  0.00    +0.009 A 
ATOM     10  C   UNL     1     -14.989  -0.917  22.601  0.00  0.00    +0.001 A 
ATOM     11  C   UNL     1     -15.199  -1.147  23.968  0.00  0.00    +0.000 A 
ATOM     12  C   UNL     1     -16.485  -1.365  24.455  0.00  0.00    +0.004 A 
ATOM     13  C   UNL     1     -17.536  -1.359  23.549  0.00  0.00    -0.035 A 
ATOM     14  C   UNL     1     -19.002  -1.534  23.863  0.00  0.00    +0.071 C 
ENDBRANCH   1   2
BRANCH   1  22
ATOM     15  C   UNL     1     -19.868   3.437  12.112  0.00  0.00    +0.039 A 
ATOM     16  C   UNL     1     -18.926   2.443  12.122  0.00  0.00    +0.116 A 
ATOM     17  N   UNL     1     -18.529   1.804  13.238  0.00  0.00    -0.223 NA
ATOM     18  C   UNL     1     -19.090   2.165  14.406  0.00  0.00    +0.218 A 
ATOM     19  N   UNL     1     -18.668   1.538  15.582  0.00  0.00    -0.297 N 
ATOM     20  C   UNL     1     -19.653   1.600  16.670  0.00  0.00    +0.123 C 
ATOM     21  C   UNL     1     -19.083   0.972  17.962  0.00  0.00    +0.103 C 
ATOM     22  N   UNL     1     -18.590  -0.411  17.761  0.00  0.00    -0.295 NA
ATOM     23  C   UNL     1     -17.556  -0.381  16.694  0.00  0.00    +0.103 C 
ATOM     24  C   UNL     1     -18.086   0.206  15.366  0.00  0.00    +0.123 C 
ATOM     25  N   UNL     1     -20.020   3.135  14.482  0.00  0.00    -0.223 NA
ATOM     26  C   UNL     1     -20.388   3.747  13.341  0.00  0.00    +0.116 A 
ENDBRANCH   1  22
TORSDOF 2
ENDMDL
MODEL 5
REMARK VINA RESULT:    -6.951      2.561      7.916
REMARK INTER + INTRA:          -8.050
REMARK INTER:                  -7.669
REMARK INTRA:                  -0.381
REMARK UNBOUND:                -0.286
REMARK  Name = 
REMARK  2 active torsions:
REMARK  status: ('A' for Active; 'I' for Inactive)
REMARK    1  A    between atoms: N_8  and  C_9
REMARK    2  A    between atoms: C_9  and  C_10
REMARK                            x       y       z     vdW  Elec       q    Type
REMARK                         _______ _______ _______ _____ _____    ______ ____
ROOT
ATOM      1  C   UNL     1     -18.871   0.354  18.596  0.00  0.00    +0.120 C 
ENDROOT
BRANCH   1   2
ATOM      2  C   UNL     1     -19.994   1.363  18.466  0.00  0.00    -0.025 A 
ATOM      3  C   UNL     1     -20.844   1.632  19.565  0.00  0.00    +0.005 A 
ATOM      4  C   UNL     1     -21.882   2.573  19.499  0.00  0.00    +0.001 A 
ATOM      5  C   UNL     1     -22.122   3.271  18.324  0.00  0.00    +0.004 A 
ATOM      6  C   UNL     1     -21.326   2.986  17.226  0.00  0.00    -0.035 A 
ATOM      7  C   UNL     1     -20.280   2.022  17.264  0.00  0.00    -0.010 A 
ATOM      8  C   UNL     1     -19.708   1.943  15.920  0.00  0.00    -0.014 A 
ATOM      9  C   UNL     1     -18.730   1.129  15.366  0.00  0.00    +0.009 A 
ATOM     10  C   UNL     1     -18.392   1.284  14.015  0.00  0.00    +0.001 A 
ATOM     11  C   UNL     1     -19.036   2.237  13.214  0.00  0.00    +0.000 A 
ATOM     12  C   UNL     1     -20.037   3.044  13.748  0.00  0.00    +0.004 A 
ATOM     13  C   UNL     1     -20.362   2.881  15.089  0.00  0.00    -0.035 A 
ATOM     14  C   UNL     1     -21.432   3.618  15.856  0.00  0.00    +0.071 C 
ENDBRANCH   1   2
BRANCH   1  22
ATOM     15  C   UNL     1     -12.137   1.850  23.363  0.00  0.00    +0.039 A 
ATOM     16  C   UNL     1     -12.862   2.856  22.782  0.00  0.00    +0.116 A 
ATOM     17  N   UNL     1     -13.874   2.642  21.919  0.00  0.00    -0.223 NA
ATOM     18  C   UNL     1     -14.187   1.370  21.616  0.00  0.00    +0.218 A 
ATOM     19  N   UNL     1     -15.212   1.126  20.698  0.00  0.00    -0.297 N 
ATOM     20  C   UNL     1     -15.816  -0.207  20.827  0.00  0.00    +0.123 C 
ATOM     21  C   UNL     1     -16.873  -0.439  19.724  0.00  0.00    +0.103 C 
ATOM     22  N   UNL     1     -17.909   0.619  19.687  0.00  0.00    -0.295 NA
ATOM     23  C   UNL     1     -17.228   1.925  19.491  0.00  0.00    +0.103 C 
ATOM     24  C   UNL     1     -16.184   2.224  20.590  0.00  0.00    +0.123 C 
ATOM     25  N   UNL     1     -13.522   0.325  22.142  0.00  0.00    -0.223 NA
ATOM     26  C   UNL     1     -12.517   0.585  23.000  0.00  0.00    +0.116 A 
ENDBRANCH   1  22
TORSDOF 2
ENDMDL
MODEL 6
REMARK VINA RESULT:    -6.923      3.661      7.848
REMARK INTER + INTRA:          -8.019
REMARK INTER:                  -7.962
REMARK INTRA:                  -0.056
REMARK UNBOUND:                -0.286
REMARK  Name = 
REMARK  2 active torsions:
REMARK  status: ('A' for Active; 'I' for Inactive)
REMARK    1  A    between atoms: N_8  and  C_9
REMARK    2  A    between atoms: C_9  and  C_10
REMARK                            x       y       z     vdW  Elec       q    Type
REMARK                         _______ _______ _______ _____ _____    ______ ____
ROOT
ATOM      1  C   UNL     1     -19.561   2.363  18.008  0.00  0.00    +0.120 C 
ENDROOT
BRANCH   1   2
ATOM      2  C   UNL     1     -18.917   1.436  16.997  0.00  0.00    -0.025 A 
ATOM      3  C   UNL     1     -18.137   0.338  17.431  0.00  0.00    +0.005 A 
ATOM      4  C   UNL     1     -17.540  -0.560  16.533  0.00  0.00    +0.001 A 
ATOM      5  C   UNL     1     -17.687  -0.385  15.164  0.00  0.00    +0.004 A 
ATOM      6  C   UNL     1     -18.412   0.711  14.725  0.00  0.00    -0.035 A 
ATOM      7  C   UNL     1     -19.010   1.645  15.616  0.00  0.00    -0.010 A 
ATOM      8  C   UNL     1     -19.628   2.693  14.803  0.00  0.00    -0.014 A 
ATOM      9  C   UNL     1     -20.273   3.876  15.134  0.00  0.00    +0.009 A 
ATOM     10  C   UNL     1     -20.764   4.700  14.112  0.00  0.00    +0.001 A 
ATOM     11  C   UNL     1     -20.601   4.353  12.764  0.00  0.00    +0.000 A 
ATOM     12  C   UNL     1     -19.934   3.182  12.415  0.00  0.00    +0.004 A 
ATOM     13  C   UNL     1     -19.454   2.374  13.436  0.00  0.00    -0.035 A 
ATOM     14  C   UNL     1     -18.675   1.090  13.284  0.00  0.00    +0.071 C 
ENDBRANCH   1   2
BRANCH   1  22
ATOM     15  C   UNL     1     -24.797  -0.894  23.689  0.00  0.00    +0.039 A 
ATOM     16  C   UNL     1     -24.380  -1.595  22.589  0.00  0.00    +0.116 A 
ATOM     17  N   UNL     1     -23.636  -1.060  21.603  0.00  0.00    -0.223 NA
ATOM     18  C   UNL     1     -23.283   0.233  21.708  0.00  0.00    +0.218 A 
ATOM     19  N   UNL     1     -22.539   0.818  20.680  0.00  0.00    -0.297 N 
ATOM     20  C   UNL     1     -21.781   2.004  21.101  0.00  0.00    +0.123 C 
ATOM     21  C   UNL     1     -21.060   2.649  19.896  0.00  0.00    +0.103 C 
ATOM     22  N   UNL     1     -20.198   1.694  19.161  0.00  0.00    -0.295 NA
ATOM     23  C   UNL     1     -21.046   0.558  18.715  0.00  0.00    +0.103 C 
ATOM     24  C   UNL     1     -21.763  -0.147  19.888  0.00  0.00    +0.123 C 
ATOM     25  N   UNL     1     -23.655   0.992  22.756  0.00  0.00    -0.223 NA
ATOM     26  C   UNL     1     -24.400   0.416  23.719  0.00  0.00    +0.116 A 
ENDBRANCH   1  22
TORSDOF 2
ENDMDL
MODEL 7
REMARK VINA RESULT:    -6.708      1.838      3.263
REMARK INTER + INTRA:          -7.779
REMARK INTER:                  -7.380
REMARK INTRA:                  -0.399
REMARK UNBOUND:                -0.286
REMARK  Name = 
REMARK  2 active torsions:
REMARK  status: ('A' for Active; 'I' for Inactive)
REMARK    1  A    between atoms: N_8  and  C_9
REMARK    2  A    between atoms: C_9  and  C_10
REMARK                            x       y       z     vdW  Elec       q    Type
REMARK                         _______ _______ _______ _____ _____    ______ ____
ROOT
ATOM      1  C   UNL     1     -19.838   0.460  18.773  0.00  0.00    +0.120 C 
ENDROOT
BRANCH   1   2
ATOM      2  C   UNL     1     -19.473   1.012  20.137  0.00  0.00    -0.025 A 
ATOM      3  C   UNL     1     -20.148   2.141  20.654  0.00  0.00    +0.005 A 
ATOM      4  C   UNL     1     -19.860   2.674  21.920  0.00  0.00    +0.001 A 
ATOM      5  C   UNL     1     -18.872   2.106  22.712  0.00  0.00    +0.004 A 
ATOM      6  C   UNL     1     -18.172   1.025  22.199  0.00  0.00    -0.035 A 
ATOM      7  C   UNL     1     -18.433   0.481  20.911  0.00  0.00    -0.010 A 
ATOM      8  C   UNL     1     -17.467  -0.594  20.685  0.00  0.00    -0.014 A 
ATOM      9  C   UNL     1     -17.209  -1.405  19.589  0.00  0.00    +0.009 A 
ATOM     10  C   UNL     1     -16.189  -2.363  19.669  0.00  0.00    +0.001 A 
ATOM     11  C   UNL     1     -15.418  -2.502  20.831  0.00  0.00    +0.000 A 
ATOM     12  C   UNL     1     -15.648  -1.679  21.930  0.00  0.00    +0.004 A 
ATOM     13  C   UNL     1     -16.662  -0.735  21.839  0.00  0.00    -0.035 A 
ATOM     14  C   UNL     1     -17.053   0.277  22.888  0.00  0.00    +0.071 C 
ENDBRANCH   1   2
BRANCH   1  22
ATOM     15  C   UNL     1     -19.088   4.197  11.305  0.00  0.00    +0.039 A 
ATOM     16  C   UNL     1     -20.131   4.457  12.154  0.00  0.00    +0.116 A 
ATOM     17  N   UNL     1     -20.340   3.788  13.304  0.00  0.00    -0.223 NA
ATOM     18  C   UNL     1     -19.474   2.814  13.634  0.00  0.00    +0.218 A 
ATOM     19  N   UNL     1     -19.690   2.085  14.807  0.00  0.00    -0.297 N 
ATOM     20  C   UNL     1     -18.478   1.449  15.339  0.00  0.00    +0.123 C 
ATOM     21  C   UNL     1     -18.810   0.587  16.578  0.00  0.00    +0.103 C 
ATOM     22  N   UNL     1     -19.526   1.344  17.631  0.00  0.00    -0.295 NA
ATOM     23  C   UNL     1     -20.767   1.901  17.035  0.00  0.00    +0.103 C 
ATOM     24  C   UNL     1     -20.489   2.802  15.811  0.00  0.00    +0.123 C 
ATOM     25  N   UNL     1     -18.425   2.495  12.853  0.00  0.00    -0.223 NA
ATOM     26  C   UNL     1     -18.255   3.189  11.712  0.00  0.00    +0.116 A 
ENDBRANCH   1  22
TORSDOF 2
ENDMDL
MODEL 8
REMARK VINA RESULT:    -6.700      2.631      4.175
REMARK INTER + INTRA:          -7.769
REMARK INTER:                  -7.497
REMARK INTRA:                  -0.272
REMARK UNBOUND:                -0.286
REMARK  Name = 
REMARK  2 active torsions:
REMARK  status: ('A' for Active; 'I' for Inactive)
REMARK    1  A    between atoms: N_8  and  C_9
REMARK    2  A    between atoms: C_9  and  C_10
REMARK                            x       y       z     vdW  Elec       q    Type
REMARK                         _______ _______ _______ _____ _____    ______ ____
ROOT
ATOM      1  C   UNL     1     -19.937   2.035  20.115  0.00  0.00    +0.120 C 
ENDROOT
BRANCH   1   2
ATOM      2  C   UNL     1     -18.929   1.042  20.660  0.00  0.00    -0.025 A 
ATOM      3  C   UNL     1     -17.560   1.157  20.322  0.00  0.00    +0.005 A 
ATOM      4  C   UNL     1     -16.588   0.276  20.820  0.00  0.00    +0.001 A 
ATOM      5  C   UNL     1     -16.951  -0.765  21.663  0.00  0.00    +0.004 A 
ATOM      6  C   UNL     1     -18.295  -0.915  21.966  0.00  0.00    -0.035 A 
ATOM      7  C   UNL     1     -19.300  -0.046  21.458  0.00  0.00    -0.010 A 
ATOM      8  C   UNL     1     -20.591  -0.545  21.931  0.00  0.00    -0.014 A 
ATOM      9  C   UNL     1     -21.896  -0.145  21.685  0.00  0.00    +0.009 A 
ATOM     10  C   UNL     1     -22.954  -0.839  22.288  0.00  0.00    +0.001 A 
ATOM     11  C   UNL     1     -22.712  -1.939  23.123  0.00  0.00    +0.000 A 
ATOM     12  C   UNL     1     -21.409  -2.369  23.360  0.00  0.00    +0.004 A 
ATOM     13  C   UNL     1     -20.371  -1.672  22.757  0.00  0.00    -0.035 A 
ATOM     14  C   UNL     1     -18.898  -1.987  22.847  0.00  0.00    +0.071 C 
ENDBRANCH   1   2
BRANCH   1  22
ATOM     15  C   UNL     1     -20.228   4.249  12.033  0.00  0.00    +0.039 A 
ATOM     16  C   UNL     1     -20.585   5.105  13.041  0.00  0.00    +0.116 A 
ATOM     17  N   UNL     1     -20.660   4.741  14.335  0.00  0.00    -0.223 NA
ATOM     18  C   UNL     1     -20.367   3.467  14.651  0.00  0.00    +0.218 A 
ATOM     19  N   UNL     1     -20.470   3.059  15.984  0.00  0.00    -0.297 N 
ATOM     20  C   UNL     1     -19.660   1.876  16.304  0.00  0.00    +0.123 C 
ATOM     21  C   UNL     1     -19.896   1.429  17.764  0.00  0.00    +0.103 C 
ATOM     22  N   UNL     1     -19.669   2.517  18.744  0.00  0.00    -0.295 NA
ATOM     23  C   UNL     1     -20.566   3.648  18.392  0.00  0.00    +0.103 C 
ATOM     24  C   UNL     1     -20.345   4.159  16.951  0.00  0.00    +0.123 C 
ATOM     25  N   UNL     1     -20.010   2.564  13.719  0.00  0.00    -0.223 NA
ATOM     26  C   UNL     1     -19.948   2.971  12.437  0.00  0.00    +0.116 A 
ENDBRANCH   1  22
TORSDOF 2
ENDMDL
MODEL 9
REMARK VINA RESULT:    -6.681      2.714      8.433
REMARK INTER + INTRA:          -7.748
REMARK INTER:                  -7.436
REMARK INTRA:                  -0.312
REMARK UNBOUND:                -0.286
REMARK  Name = 
REMARK  2 active torsions:
REMARK  status: ('A' for Active; 'I' for Inactive)
REMARK    1  A    between atoms: N_8  and  C_9
REMARK    2  A    between atoms: C_9  and  C_10
REMARK                            x       y       z     vdW  Elec       q    Type
REMARK                         _______ _______ _______ _____ _____    ______ ____
ROOT
ATOM      1  C   UNL     1     -18.785   0.604  18.089  0.00  0.00    +0.120 C 
ENDROOT
BRANCH   1   2
ATOM      2  C   UNL     1     -19.792   1.727  17.944  0.00  0.00    -0.025 A 
ATOM      3  C   UNL     1     -20.550   2.156  19.059  0.00  0.00    +0.005 A 
ATOM      4  C   UNL     1     -21.477   3.205  18.978  0.00  0.00    +0.001 A 
ATOM      5  C   UNL     1     -21.694   3.858  17.772  0.00  0.00    +0.004 A 
ATOM      6  C   UNL     1     -20.990   3.419  16.662  0.00  0.00    -0.035 A 
ATOM      7  C   UNL     1     -20.060   2.344  16.716  0.00  0.00    -0.010 A 
ATOM      8  C   UNL     1     -19.567   2.122  15.357  0.00  0.00    -0.014 A 
ATOM      9  C   UNL     1     -18.717   1.170  14.814  0.00  0.00    +0.009 A 
ATOM     10  C   UNL     1     -18.430   1.206  13.442  0.00  0.00    +0.001 A 
ATOM     11  C   UNL     1     -19.001   2.180  12.611  0.00  0.00    +0.000 A 
ATOM     12  C   UNL     1     -19.877   3.127  13.136  0.00  0.00    +0.004 A 
ATOM     13  C   UNL     1     -20.151   3.080  14.496  0.00  0.00    -0.035 A 
ATOM     14  C   UNL     1     -21.092   3.979  15.260  0.00  0.00    +0.071 C 
ENDBRANCH   1   2
BRANCH   1  22
ATOM     15  C   UNL     1     -14.531  -1.391  25.034  0.00  0.00    +0.039 A 
ATOM     16  C   UNL     1     -14.472  -0.144  24.471  0.00  0.00    +0.116 A 
ATOM     17  N   UNL     1     -15.049   0.170  23.296  0.00  0.00    -0.223 NA
ATOM     18  C   UNL     1     -15.720  -0.795  22.643  0.00  0.00    +0.218 A 
ATOM     19  N   UNL     1     -16.298  -0.500  21.406  0.00  0.00    -0.297 N 
ATOM     20  C   UNL     1     -17.403  -1.397  21.041  0.00  0.00    +0.123 C 
ATOM     21  C   UNL     1     -17.929  -1.071  19.625  0.00  0.00    +0.103 C 
ATOM     22  N   UNL     1     -18.318   0.350  19.468  0.00  0.00    -0.295 NA
ATOM     23  C   UNL     1     -17.135   1.190  19.792  0.00  0.00    +0.103 C 
ATOM     24  C   UNL     1     -16.590   0.928  21.214  0.00  0.00    +0.123 C 
ATOM     25  N   UNL     1     -15.822  -2.047  23.128  0.00  0.00    -0.223 NA
ATOM     26  C   UNL     1     -15.230  -2.317  24.306  0.00  0.00    +0.116 A 
ENDBRANCH   1  22
TORSDOF 2
ENDMDL
