MODEL 1
REMARK VINA RESULT:    -6.655      0.000      0.000
REMARK INTER + INTRA:          -9.503
REMARK INTER:                  -9.378
REMARK INTRA:                  -0.125
REMARK UNBOUND:                -0.125
REMARK  Name = 
REMARK  11 active torsions:
REMARK  status: ('A' for Active; 'I' for Inactive)
REMARK    1  A    between atoms: C_1  and  C_2
REMARK    2  A    between atoms: C_5  and  C_6
REMARK    3  A    between atoms: C_9  and  C_10
REMARK    4  A    between atoms: C_13  and  C_14
REMARK    5  A    between atoms: N_16  and  C_17
REMARK    6  A    between atoms: C_20  and  O_21
REMARK    7  A    between atoms: O_21  and  S_22
REMARK    8  A    between atoms: S_22  and  C_23
REMARK    9  A    between atoms: C_26  and  N_27
REMARK   10  A    between atoms: N_30  and  C_31
REMARK   11  A    between atoms: C_37  and  C_38
REMARK                            x       y       z     vdW  Elec       q    Type
REMARK                         _______ _______ _______ _____ _____    ______ ____
ROOT
ATOM      1  C   UNL     1      -4.638  -1.578  -6.529  0.00  0.00    +0.248 C 
ATOM      2  O   UNL     1      -5.510  -2.399  -6.777  0.00  0.00    -0.270 OA
ATOM      3  N   UNL     1      -4.247  -0.498  -7.299  0.00  0.00    -0.281 N 
ATOM      4  H   UNL     1      -3.421  -0.002  -6.992  0.00  0.00    +0.155 HD
ENDROOT
BRANCH   1   8
ATOM      5  C   UNL     1      -2.378  -1.980  -2.888  0.00  0.00    -0.018 A 
ATOM      6  C   UNL     1      -2.744  -3.118  -3.630  0.00  0.00    +0.009 A 
ATOM      7  C   UNL     1      -3.479  -2.999  -4.813  0.00  0.00    +0.013 A 
ATOM      8  C   UNL     1      -3.860  -1.734  -5.271  0.00  0.00    +0.037 A 
ATOM      9  C   UNL     1      -3.494  -0.593  -4.554  0.00  0.00    +0.013 A 
ATOM     10  C   UNL     1      -2.770  -0.718  -3.365  0.00  0.00    +0.009 A 
BRANCH   5  14
ATOM     11  C   UNL     1      -0.225  -2.442   0.826  0.00  0.00    +0.039 A 
ATOM     12  C   UNL     1      -1.617  -2.555   0.768  0.00  0.00    +0.014 A 
ATOM     13  C   UNL     1      -2.296  -2.392  -0.444  0.00  0.00    +0.009 A 
ATOM     14  C   UNL     1      -1.607  -2.123  -1.641  0.00  0.00    -0.015 A 
ATOM     15  C   UNL     1      -0.198  -2.021  -1.594  0.00  0.00    -0.042 A 
ATOM     16  C   UNL     1       0.624  -1.744  -2.828  0.00  0.00    +0.044 C 
ATOM     17  C   UNL     1       0.470  -2.167  -0.362  0.00  0.00    +0.017 A 
BRANCH  11  22
ATOM     18  C   UNL     1       0.157  -3.054   5.583  0.00  0.00    +0.111 C 
ATOM     19  C   UNL     1       0.633  -2.897   4.199  0.00  0.00    +0.215 A 
ATOM     20  N   UNL     1       1.862  -2.879   3.728  0.00  0.00    -0.112 NA
ATOM     21  N   UNL     1       1.750  -2.711   2.364  0.00  0.00    -0.107 NA
ATOM     22  C   UNL     1       0.461  -2.626   2.097  0.00  0.00    +0.248 A 
ATOM     23  O   UNL     1      -0.316  -2.738   3.225  0.00  0.00    -0.421 OA
ENDBRANCH  11  22
ENDBRANCH   5  14
ENDBRANCH   1   8
BRANCH   3  24
ATOM     24  C   UNL     1      -4.785  -0.081  -8.534  0.00  0.00    +0.036 A 
ATOM     25  C   UNL     1      -6.162  -0.241  -8.707  0.00  0.00    +0.027 A 
ATOM     26  C   UNL     1      -6.772   0.176  -9.887  0.00  0.00    +0.052 A 
ATOM     27  C   UNL     1      -6.002   0.758 -10.895  0.00  0.00    +0.177 A 
ATOM     28  C   UNL     1      -4.600   0.878 -10.793  0.00  0.00    +0.077 A 
ATOM     29  C   UNL     1      -4.023   0.468  -9.577  0.00  0.00    +0.050 A 
BRANCH  28  30
ATOM     30  N   UNL     1      -3.857   1.422 -11.849  0.00  0.00    -0.325 N 
ATOM     31  C   UNL     1      -3.561   2.874 -11.890  0.00  0.00    +0.120 C 
ATOM     32  C   UNL     1      -2.208   3.237 -11.233  0.00  0.00    +0.103 C 
ATOM     33  N   UNL     1      -1.080   2.430 -11.751  0.00  0.00    -0.302 NA
ATOM     34  C   UNL     1       0.157   2.769 -11.051  0.00  0.00    +0.105 C 
ATOM     35  C   UNL     1      -1.399   0.996 -11.586  0.00  0.00    +0.103 C 
ATOM     36  C   UNL     1      -2.707   0.601 -12.309  0.00  0.00    +0.120 C 
ENDBRANCH  28  30
BRANCH  27  37
ATOM     37  O   UNL     1      -6.641   1.217 -12.024  0.00  0.00    -0.344 OA
BRANCH  37  38
ATOM     38  S   UNL     1      -7.643   2.504 -11.909  0.00  0.00    +0.118 S 
ATOM     39  C   UNL     1      -7.731   2.657 -10.137  0.00  0.00    +0.242 C 
ATOM     40  O   UNL     1      -6.934   3.664 -12.415  0.00  0.00    -0.137 OA
ATOM     41  O   UNL     1      -8.962   2.172 -12.414  0.00  0.00    -0.137 OA
ENDBRANCH  37  38
ENDBRANCH  27  37
ENDBRANCH   3  24
TORSDOF 7
ENDMDL
