MODEL 1
REMARK VINA RESULT:    -7.658      0.000      0.000
REMARK INTER + INTRA:          -9.238
REMARK INTER:                  -9.001
REMARK INTRA:                  -0.238
REMARK UNBOUND:                -0.238
REMARK  Name = 
REMARK  5 active torsions:
REMARK  status: ('A' for Active; 'I' for Inactive)
REMARK    1  A    between atoms: C_1  and  C_2
REMARK    2  A    between atoms: C_4  and  C_5
REMARK    3  A    between atoms: C_7  and  N_8
REMARK    4  A    between atoms: C_9  and  C_11
REMARK    5  A    between atoms: C_15  and  C_16
REMARK                            x       y       z     vdW  Elec       q    Type
REMARK                         _______ _______ _______ _____ _____    ______ ____
ROOT
ATOM      1  C   UNL     1     -20.355   6.986  -6.714  0.00  0.00    +0.144 A 
ATOM      2  C   UNL     1     -19.618   7.424  -5.626  0.00  0.00    +0.143 A 
ATOM      3  N   UNL     1     -19.495   6.682  -4.500  0.00  0.00    -0.259 NA
ATOM      4  C   UNL     1     -20.142   5.487  -4.518  0.00  0.00    +0.139 A 
ATOM      5  C   UNL     1     -20.885   5.027  -5.608  0.00  0.00    +0.090 A 
ATOM      6  N   UNL     1     -21.006   5.785  -6.732  0.00  0.00    -0.239 NA
ENDROOT
BRANCH   5   7
ATOM      7  C   UNL     1     -21.583   3.728  -5.626  0.00  0.00    +0.002 A 
ATOM      8  C   UNL     1     -20.907   2.515  -5.388  0.00  0.00    +0.011 A 
ATOM      9  C   UNL     1     -21.586   1.290  -5.410  0.00  0.00    +0.020 A 
ATOM     10  C   UNL     1     -22.952   1.258  -5.670  0.00  0.00    +0.041 A 
ATOM     11 CL   UNL     1     -23.784  -0.247  -5.697  0.00  0.00    -0.084 Cl
ATOM     12  C   UNL     1     -23.646   2.438  -5.914  0.00  0.00    +0.020 A 
ATOM     13  C   UNL     1     -22.964   3.660  -5.893  0.00  0.00    +0.011 A 
ENDBRANCH   5   7
BRANCH   1  15
ATOM     14  N   UNL     1     -19.634   7.405  -8.958  0.00  0.00    -0.280 N 
ATOM     15  C   UNL     1     -20.464   7.831  -7.938  0.00  0.00    +0.268 C 
ATOM     16  O   UNL     1     -21.234   8.782  -7.950  0.00  0.00    -0.268 OA
ATOM     17  H   UNL     1     -19.068   6.592  -8.725  0.00  0.00    +0.155 HD
BRANCH  14  24
ATOM     18  C   UNL     1     -19.210   6.967 -13.907  0.00  0.00    +0.044 C 
ATOM     19  C   UNL     1     -19.281   7.807 -12.664  0.00  0.00    -0.048 A 
ATOM     20  C   UNL     1     -19.132   9.197 -12.734  0.00  0.00    +0.006 A 
ATOM     21  C   UNL     1     -19.179   9.976 -11.574  0.00  0.00    -0.048 A 
ATOM     22  C   UNL     1     -18.994  11.463 -11.650  0.00  0.00    +0.044 C 
ATOM     23  C   UNL     1     -19.341   9.344 -10.333  0.00  0.00    +0.026 A 
ATOM     24  C   UNL     1     -19.477   7.953 -10.244  0.00  0.00    +0.034 A 
ATOM     25  C   UNL     1     -19.444   7.192 -11.414  0.00  0.00    +0.026 A 
ENDBRANCH  14  24
ENDBRANCH   1  15
TORSDOF 3
ENDMDL
MODEL 2
REMARK VINA RESULT:    -7.387      0.180      1.762
REMARK INTER + INTRA:          -8.920
REMARK INTER:                  -8.624
REMARK INTRA:                  -0.296
REMARK UNBOUND:                -0.238
REMARK  Name = 
REMARK  5 active torsions:
REMARK  status: ('A' for Active; 'I' for Inactive)
REMARK    1  A    between atoms: C_1  and  C_2
REMARK    2  A    between atoms: C_4  and  C_5
REMARK    3  A    between atoms: C_7  and  N_8
REMARK    4  A    between atoms: C_9  and  C_11
REMARK    5  A    between atoms: C_15  and  C_16
REMARK                            x       y       z     vdW  Elec       q    Type
REMARK                         _______ _______ _______ _____ _____    ______ ____
ROOT
ATOM      1  C   UNL     1     -20.315   7.000  -6.554  0.00  0.00    +0.144 A 
ATOM      2  C   UNL     1     -19.595   7.405  -5.443  0.00  0.00    +0.143 A 
ATOM      3  N   UNL     1     -19.493   6.630  -4.336  0.00  0.00    -0.259 NA
ATOM      4  C   UNL     1     -20.142   5.439  -4.399  0.00  0.00    +0.139 A 
ATOM      5  C   UNL     1     -20.869   5.011  -5.513  0.00  0.00    +0.090 A 
ATOM      6  N   UNL     1     -20.969   5.801  -6.617  0.00  0.00    -0.239 NA
ENDROOT
BRANCH   5   7
ATOM      7  C   UNL     1     -21.570   3.716  -5.579  0.00  0.00    +0.002 A 
ATOM      8  C   UNL     1     -20.899   2.494  -5.377  0.00  0.00    +0.011 A 
ATOM      9  C   UNL     1     -21.580   1.272  -5.443  0.00  0.00    +0.020 A 
ATOM     10  C   UNL     1     -22.945   1.252  -5.714  0.00  0.00    +0.041 A 
ATOM     11 CL   UNL     1     -23.781  -0.249  -5.797  0.00  0.00    -0.084 Cl
ATOM     12  C   UNL     1     -23.634   2.442  -5.923  0.00  0.00    +0.020 A 
ATOM     13  C   UNL     1     -22.949   3.660  -5.857  0.00  0.00    +0.011 A 
ENDBRANCH   5   7
BRANCH   1  15
ATOM     14  N   UNL     1     -19.627   7.427  -8.807  0.00  0.00    -0.280 N 
ATOM     15  C   UNL     1     -20.403   7.878  -7.756  0.00  0.00    +0.268 C 
ATOM     16  O   UNL     1     -21.112   8.876  -7.726  0.00  0.00    -0.268 OA
ATOM     17  H   UNL     1     -19.107   6.575  -8.607  0.00  0.00    +0.155 HD
BRANCH  14  24
ATOM     18  C   UNL     1     -19.105  11.343 -11.849  0.00  0.00    +0.044 C 
ATOM     19  C   UNL     1     -19.195   9.862 -11.618  0.00  0.00    -0.048 A 
ATOM     20  C   UNL     1     -19.181   8.971 -12.697  0.00  0.00    +0.006 A 
ATOM     21  C   UNL     1     -19.284   7.593 -12.483  0.00  0.00    -0.048 A 
ATOM     22  C   UNL     1     -19.293   6.643 -13.644  0.00  0.00    +0.044 C 
ATOM     23  C   UNL     1     -19.438   7.116 -11.174  0.00  0.00    +0.026 A 
ATOM     24  C   UNL     1     -19.468   7.994 -10.084  0.00  0.00    +0.034 A 
ATOM     25  C   UNL     1     -19.348   9.366 -10.315  0.00  0.00    +0.026 A 
ENDBRANCH  14  24
ENDBRANCH   1  15
TORSDOF 3
ENDMDL
MODEL 3
REMARK VINA RESULT:    -7.178      3.888      6.597
REMARK INTER + INTRA:          -8.675
REMARK INTER:                  -8.308
REMARK INTRA:                  -0.367
REMARK UNBOUND:                -0.238
REMARK  Name = 
REMARK  5 active torsions:
REMARK  status: ('A' for Active; 'I' for Inactive)
REMARK    1  A    between atoms: C_1  and  C_2
REMARK    2  A    between atoms: C_4  and  C_5
REMARK    3  A    between atoms: C_7  and  N_8
REMARK    4  A    between atoms: C_9  and  C_11
REMARK    5  A    between atoms: C_15  and  C_16
REMARK                            x       y       z     vdW  Elec       q    Type
REMARK                         _______ _______ _______ _____ _____    ______ ____
ROOT
ATOM      1  C   UNL     1     -23.104   1.745  -5.690  0.00  0.00    +0.144 A 
ATOM      2  C   UNL     1     -23.797   1.292  -4.579  0.00  0.00    +0.143 A 
ATOM      3  N   UNL     1     -24.863   0.463  -4.690  0.00  0.00    -0.259 NA
ATOM      4  C   UNL     1     -25.197   0.113  -5.960  0.00  0.00    +0.139 A 
ATOM      5  C   UNL     1     -24.507   0.556  -7.091  0.00  0.00    +0.090 A 
ATOM      6  N   UNL     1     -23.441   1.393  -6.967  0.00  0.00    -0.239 NA
ENDROOT
BRANCH   5   7
ATOM      7  C   UNL     1     -24.870   0.171  -8.468  0.00  0.00    +0.002 A 
ATOM      8  C   UNL     1     -24.463   0.925  -9.585  0.00  0.00    +0.011 A 
ATOM      9  C   UNL     1     -24.818   0.545 -10.886  0.00  0.00    +0.020 A 
ATOM     10  C   UNL     1     -25.587  -0.596 -11.090  0.00  0.00    +0.041 A 
ATOM     11 CL   UNL     1     -26.024  -1.061 -12.687  0.00  0.00    -0.084 Cl
ATOM     12  C   UNL     1     -26.009  -1.359 -10.006  0.00  0.00    +0.020 A 
ATOM     13  C   UNL     1     -25.654  -0.975  -8.708  0.00  0.00    +0.011 A 
ENDBRANCH   5   7
BRANCH   1  15
ATOM     14  N   UNL     1     -22.211   3.956  -5.900  0.00  0.00    -0.280 N 
ATOM     15  C   UNL     1     -21.934   2.654  -5.528  0.00  0.00    +0.268 C 
ATOM     16  O   UNL     1     -20.876   2.208  -5.104  0.00  0.00    -0.268 OA
ATOM     17  H   UNL     1     -23.161   4.102  -6.236  0.00  0.00    +0.155 HD
BRANCH  14  24
ATOM     18  C   UNL     1     -18.868   6.898  -3.656  0.00  0.00    +0.044 C 
ATOM     19  C   UNL     1     -19.713   6.537  -4.844  0.00  0.00    -0.048 A 
ATOM     20  C   UNL     1     -19.725   7.352  -5.982  0.00  0.00    +0.006 A 
ATOM     21  C   UNL     1     -20.526   7.026  -7.081  0.00  0.00    -0.048 A 
ATOM     22  C   UNL     1     -20.555   7.915  -8.290  0.00  0.00    +0.044 C 
ATOM     23  C   UNL     1     -21.346   5.891  -7.015  0.00  0.00    +0.026 A 
ATOM     24  C   UNL     1     -21.357   5.073  -5.878  0.00  0.00    +0.034 A 
ATOM     25  C   UNL     1     -20.539   5.405  -4.797  0.00  0.00    +0.026 A 
ENDBRANCH  14  24
ENDBRANCH   1  15
TORSDOF 3
ENDMDL
MODEL 4
REMARK VINA RESULT:    -7.077      3.913      6.574
REMARK INTER + INTRA:          -8.555
REMARK INTER:                  -8.319
REMARK INTRA:                  -0.237
REMARK UNBOUND:                -0.238
REMARK  Name = 
REMARK  5 active torsions:
REMARK  status: ('A' for Active; 'I' for Inactive)
REMARK    1  A    between atoms: C_1  and  C_2
REMARK    2  A    between atoms: C_4  and  C_5
REMARK    3  A    between atoms: C_7  and  N_8
REMARK    4  A    between atoms: C_9  and  C_11
REMARK    5  A    between atoms: C_15  and  C_16
REMARK                            x       y       z     vdW  Elec       q    Type
REMARK                         _______ _______ _______ _____ _____    ______ ____
ROOT
ATOM      1  C   UNL     1     -23.163   1.734  -5.731  0.00  0.00    +0.144 A 
ATOM      2  C   UNL     1     -23.834   1.291  -4.603  0.00  0.00    +0.143 A 
ATOM      3  N   UNL     1     -24.892   0.449  -4.686  0.00  0.00    -0.259 NA
ATOM      4  C   UNL     1     -25.240   0.076  -5.945  0.00  0.00    +0.139 A 
ATOM      5  C   UNL     1     -24.572   0.509  -7.093  0.00  0.00    +0.090 A 
ATOM      6  N   UNL     1     -23.514   1.360  -6.997  0.00  0.00    -0.239 NA
ENDROOT
BRANCH   5   7
ATOM      7  C   UNL     1     -24.951   0.100  -8.458  0.00  0.00    +0.002 A 
ATOM      8  C   UNL     1     -24.470   0.771  -9.599  0.00  0.00    +0.011 A 
ATOM      9  C   UNL     1     -24.841   0.369 -10.888  0.00  0.00    +0.020 A 
ATOM     10  C   UNL     1     -25.701  -0.712 -11.058  0.00  0.00    +0.041 A 
ATOM     11 CL   UNL     1     -26.157  -1.204 -12.641  0.00  0.00    -0.084 Cl
ATOM     12  C   UNL     1     -26.197  -1.391  -9.951  0.00  0.00    +0.020 A 
ATOM     13  C   UNL     1     -25.825  -0.985  -8.664  0.00  0.00    +0.011 A 
ENDBRANCH   5   7
BRANCH   1  15
ATOM     14  N   UNL     1     -22.285   3.943  -6.023  0.00  0.00    -0.280 N 
ATOM     15  C   UNL     1     -21.999   2.659  -5.599  0.00  0.00    +0.268 C 
ATOM     16  O   UNL     1     -20.940   2.238  -5.153  0.00  0.00    -0.268 OA
ATOM     17  H   UNL     1     -23.235   4.068  -6.369  0.00  0.00    +0.155 HD
BRANCH  14  24
ATOM     18  C   UNL     1     -20.407   8.002  -8.227  0.00  0.00    +0.044 C 
ATOM     19  C   UNL     1     -20.497   7.066  -7.057  0.00  0.00    -0.048 A 
ATOM     20  C   UNL     1     -19.680   7.248  -5.935  0.00  0.00    +0.006 A 
ATOM     21  C   UNL     1     -19.752   6.365  -4.853  0.00  0.00    -0.048 A 
ATOM     22  C   UNL     1     -18.857   6.549  -3.662  0.00  0.00    +0.044 C 
ATOM     23  C   UNL     1     -20.626   5.271  -4.921  0.00  0.00    +0.026 A 
ATOM     24  C   UNL     1     -21.440   5.066  -6.042  0.00  0.00    +0.034 A 
ATOM     25  C   UNL     1     -21.367   5.967  -7.106  0.00  0.00    +0.026 A 
ENDBRANCH  14  24
ENDBRANCH   1  15
TORSDOF 3
ENDMDL
MODEL 5
REMARK VINA RESULT:    -6.285     11.230     14.260
REMARK INTER + INTRA:          -7.625
REMARK INTER:                  -7.474
REMARK INTRA:                  -0.151
REMARK UNBOUND:                -0.238
REMARK  Name = 
REMARK  5 active torsions:
REMARK  status: ('A' for Active; 'I' for Inactive)
REMARK    1  A    between atoms: C_1  and  C_2
REMARK    2  A    between atoms: C_4  and  C_5
REMARK    3  A    between atoms: C_7  and  N_8
REMARK    4  A    between atoms: C_9  and  C_11
REMARK    5  A    between atoms: C_15  and  C_16
REMARK                            x       y       z     vdW  Elec       q    Type
REMARK                         _______ _______ _______ _____ _____    ______ ____
ROOT
ATOM      1  C   UNL     1     -22.810  15.921 -12.892  0.00  0.00    +0.144 A 
ATOM      2  C   UNL     1     -22.374  15.019 -11.936  0.00  0.00    +0.143 A 
ATOM      3  N   UNL     1     -21.121  14.503 -11.958  0.00  0.00    -0.259 NA
ATOM      4  C   UNL     1     -20.334  14.935 -12.978  0.00  0.00    +0.139 A 
ATOM      5  C   UNL     1     -20.755  15.848 -13.948  0.00  0.00    +0.090 A 
ATOM      6  N   UNL     1     -22.018  16.354 -13.918  0.00  0.00    -0.239 NA
ENDROOT
BRANCH   5   7
ATOM      7  C   UNL     1     -19.896  16.317 -15.051  0.00  0.00    +0.002 A 
ATOM      8  C   UNL     1     -18.958  17.353 -14.877  0.00  0.00    +0.011 A 
ATOM      9  C   UNL     1     -18.150  17.786 -15.937  0.00  0.00    +0.020 A 
ATOM     10  C   UNL     1     -18.269  17.190 -17.188  0.00  0.00    +0.041 A 
ATOM     11 CL   UNL     1     -17.278  17.723 -18.489  0.00  0.00    -0.084 Cl
ATOM     12  C   UNL     1     -19.190  16.168 -17.392  0.00  0.00    +0.020 A 
ATOM     13  C   UNL     1     -19.996  15.739 -16.332  0.00  0.00    +0.011 A 
ENDBRANCH   5   7
BRANCH   1  15
ATOM     14  N   UNL     1     -25.057  15.845 -13.714  0.00  0.00    -0.280 N 
ATOM     15  C   UNL     1     -24.196  16.470 -12.833  0.00  0.00    +0.268 C 
ATOM     16  O   UNL     1     -24.453  17.380 -12.055  0.00  0.00    -0.268 OA
ATOM     17  H   UNL     1     -24.624  15.115 -14.277  0.00  0.00    +0.155 HD
BRANCH  14  24
ATOM     18  C   UNL     1     -29.029  16.351 -16.687  0.00  0.00    +0.044 C 
ATOM     19  C   UNL     1     -28.403  16.340 -15.322  0.00  0.00    -0.048 A 
ATOM     20  C   UNL     1     -29.163  16.643 -14.187  0.00  0.00    +0.006 A 
ATOM     21  C   UNL     1     -28.575  16.650 -12.918  0.00  0.00    -0.048 A 
ATOM     22  C   UNL     1     -29.388  16.999 -11.706  0.00  0.00    +0.044 C 
ATOM     23  C   UNL     1     -27.203  16.386 -12.800  0.00  0.00    +0.026 A 
ATOM     24  C   UNL     1     -26.424  16.096 -13.927  0.00  0.00    +0.034 A 
ATOM     25  C   UNL     1     -27.031  16.076 -15.184  0.00  0.00    +0.026 A 
ENDBRANCH  14  24
ENDBRANCH   1  15
TORSDOF 3
ENDMDL
MODEL 6
REMARK VINA RESULT:    -5.780     12.690     15.064
REMARK INTER + INTRA:          -7.032
REMARK INTER:                  -7.079
REMARK INTRA:                   0.048
REMARK UNBOUND:                -0.238
REMARK  Name = 
REMARK  5 active torsions:
REMARK  status: ('A' for Active; 'I' for Inactive)
REMARK    1  A    between atoms: C_1  and  C_2
REMARK    2  A    between atoms: C_4  and  C_5
REMARK    3  A    between atoms: C_7  and  N_8
REMARK    4  A    between atoms: C_9  and  C_11
REMARK    5  A    between atoms: C_15  and  C_16
REMARK                            x       y       z     vdW  Elec       q    Type
REMARK                         _______ _______ _______ _____ _____    ______ ____
ROOT
ATOM      1  C   UNL     1      -9.229   9.102  -4.461  0.00  0.00    +0.144 A 
ATOM      2  C   UNL     1      -9.163   8.753  -5.800  0.00  0.00    +0.143 A 
ATOM      3  N   UNL     1      -9.139   9.686  -6.782  0.00  0.00    -0.259 NA
ATOM      4  C   UNL     1      -9.184  10.976  -6.358  0.00  0.00    +0.139 A 
ATOM      5  C   UNL     1      -9.245  11.347  -5.012  0.00  0.00    +0.090 A 
ATOM      6  N   UNL     1      -9.275  10.400  -4.035  0.00  0.00    -0.239 NA
ENDROOT
BRANCH   5   7
ATOM      7  C   UNL     1      -9.290  12.749  -4.556  0.00  0.00    +0.002 A 
ATOM      8  C   UNL     1      -9.441  13.821  -5.456  0.00  0.00    +0.011 A 
ATOM      9  C   UNL     1      -9.481  15.147  -5.006  0.00  0.00    +0.020 A 
ATOM     10  C   UNL     1      -9.370  15.422  -3.647  0.00  0.00    +0.041 A 
ATOM     11 CL   UNL     1      -9.418  17.050  -3.094  0.00  0.00    -0.084 Cl
ATOM     12  C   UNL     1      -9.214  14.384  -2.734  0.00  0.00    +0.020 A 
ATOM     13  C   UNL     1      -9.173  13.061  -3.188  0.00  0.00    +0.011 A 
ENDBRANCH   5   7
BRANCH   1  15
ATOM     14  N   UNL     1      -9.195   6.768  -3.931  0.00  0.00    -0.280 N 
ATOM     15  C   UNL     1      -9.250   8.046  -3.408  0.00  0.00    +0.268 C 
ATOM     16  O   UNL     1      -9.311   8.370  -2.229  0.00  0.00    -0.268 OA
ATOM     17  H   UNL     1      -9.159   6.732  -4.947  0.00  0.00    +0.155 HD
BRANCH  14  24
ATOM     18  C   UNL     1      -9.138   1.783  -3.820  0.00  0.00    +0.044 C 
ATOM     19  C   UNL     1      -9.150   3.112  -3.122  0.00  0.00    -0.048 A 
ATOM     20  C   UNL     1      -9.219   3.182  -1.725  0.00  0.00    +0.006 A 
ATOM     21  C   UNL     1      -9.249   4.421  -1.077  0.00  0.00    -0.048 A 
ATOM     22  C   UNL     1      -9.347   4.492   0.419  0.00  0.00    +0.044 C 
ATOM     23  C   UNL     1      -9.246   5.594  -1.844  0.00  0.00    +0.026 A 
ATOM     24  C   UNL     1      -9.193   5.542  -3.243  0.00  0.00    +0.034 A 
ATOM     25  C   UNL     1      -9.147   4.297  -3.873  0.00  0.00    +0.026 A 
ENDBRANCH  14  24
ENDBRANCH   1  15
TORSDOF 3
ENDMDL
