MODEL 1
REMARK VINA RESULT:    -7.690      0.000      0.000
REMARK INTER + INTRA:          -9.757
REMARK INTER:                  -9.488
REMARK INTRA:                  -0.269
REMARK UNBOUND:                -0.269
REMARK  Name = 
REMARK  6 active torsions:
REMARK  status: ('A' for Active; 'I' for Inactive)
REMARK    1  A    between atoms: C_1  and  C_2
REMARK    2  A    between atoms: C_4  and  C_5
REMARK    3  A    between atoms: C_7  and  N_8
REMARK    4  A    between atoms: C_9  and  C_11
REMARK    5  A    between atoms: C_15  and  C_16
REMARK    6  A    between atoms: C_19  and  C_20
REMARK                            x       y       z     vdW  Elec       q    Type
REMARK                         _______ _______ _______ _____ _____    ______ ____
ROOT
ATOM      1  C   UNL     1     -20.345   6.984  -6.757  0.00  0.00    +0.144 A 
ATOM      2  C   UNL     1     -19.602   7.420  -5.673  0.00  0.00    +0.143 A 
ATOM      3  N   UNL     1     -19.487   6.684  -4.541  0.00  0.00    -0.259 NA
ATOM      4  C   UNL     1     -20.147   5.497  -4.552  0.00  0.00    +0.139 A 
ATOM      5  C   UNL     1     -20.897   5.037  -5.638  0.00  0.00    +0.090 A 
ATOM      6  N   UNL     1     -21.010   5.789  -6.767  0.00  0.00    -0.239 NA
ENDROOT
BRANCH   5   7
ATOM      7  C   UNL     1     -21.609   3.747  -5.646  0.00  0.00    +0.002 A 
ATOM      8  C   UNL     1     -20.920   2.547  -5.388  0.00  0.00    +0.011 A 
ATOM      9  C   UNL     1     -21.577   1.310  -5.391  0.00  0.00    +0.019 A 
ATOM     10  C   UNL     1     -22.947   1.246  -5.647  0.00  0.00    +0.052 A 
ATOM     11  C   UNL     1     -23.653   2.425  -5.897  0.00  0.00    +0.019 A 
ATOM     12  C   UNL     1     -22.991   3.659  -5.896  0.00  0.00    +0.011 A 
BRANCH  10  13
ATOM     13  C   UNL     1     -23.623  -0.017  -5.648  0.00  0.00    +0.099 C 
ATOM     14  N   UNL     1     -24.169  -1.041  -5.649  0.00  0.00    -0.191 NA
ENDBRANCH  10  13
ENDBRANCH   5   7
BRANCH   1  16
ATOM     15  N   UNL     1     -19.604   7.394  -8.997  0.00  0.00    -0.280 N 
ATOM     16  C   UNL     1     -20.445   7.821  -7.987  0.00  0.00    +0.268 C 
ATOM     17  O   UNL     1     -21.218   8.770  -8.011  0.00  0.00    -0.268 OA
ATOM     18  H   UNL     1     -19.037   6.584  -8.754  0.00  0.00    +0.155 HD
BRANCH  15  25
ATOM     19  C   UNL     1     -19.009  11.447 -11.707  0.00  0.00    +0.044 C 
ATOM     20  C   UNL     1     -19.119   9.953 -11.618  0.00  0.00    -0.048 A 
ATOM     21  C   UNL     1     -19.112   9.173 -12.779  0.00  0.00    +0.006 A 
ATOM     22  C   UNL     1     -19.238   7.781 -12.704  0.00  0.00    -0.048 A 
ATOM     23  C   UNL     1     -19.254   6.949 -13.953  0.00  0.00    +0.044 C 
ATOM     24  C   UNL     1     -19.411   7.171 -11.451  0.00  0.00    +0.026 A 
ATOM     25  C   UNL     1     -19.437   7.936 -10.284  0.00  0.00    +0.034 A 
ATOM     26  C   UNL     1     -19.293   9.326 -10.377  0.00  0.00    +0.026 A 
ENDBRANCH  15  25
ENDBRANCH   1  16
TORSDOF 4
ENDMDL
MODEL 2
REMARK VINA RESULT:    -6.829      3.595      6.637
REMARK INTER + INTRA:          -8.695
REMARK INTER:                  -8.254
REMARK INTRA:                  -0.441
REMARK UNBOUND:                -0.269
REMARK  Name = 
REMARK  6 active torsions:
REMARK  status: ('A' for Active; 'I' for Inactive)
REMARK    1  A    between atoms: C_1  and  C_2
REMARK    2  A    between atoms: C_4  and  C_5
REMARK    3  A    between atoms: C_7  and  N_8
REMARK    4  A    between atoms: C_9  and  C_11
REMARK    5  A    between atoms: C_15  and  C_16
REMARK    6  A    between atoms: C_19  and  C_20
REMARK                            x       y       z     vdW  Elec       q    Type
REMARK                         _______ _______ _______ _____ _____    ______ ____
ROOT
ATOM      1  C   UNL     1     -23.121   1.731  -5.647  0.00  0.00    +0.144 A 
ATOM      2  C   UNL     1     -23.774   1.332  -4.493  0.00  0.00    +0.143 A 
ATOM      3  N   UNL     1     -24.841   0.497  -4.526  0.00  0.00    -0.259 NA
ATOM      4  C   UNL     1     -25.215   0.084  -5.765  0.00  0.00    +0.139 A 
ATOM      5  C   UNL     1     -24.566   0.472  -6.940  0.00  0.00    +0.090 A 
ATOM      6  N   UNL     1     -23.500   1.316  -6.893  0.00  0.00    -0.239 NA
ENDROOT
BRANCH   5   7
ATOM      7  C   UNL     1     -24.975   0.019  -8.282  0.00  0.00    +0.002 A 
ATOM      8  C   UNL     1     -25.404  -1.306  -8.490  0.00  0.00    +0.011 A 
ATOM      9  C   UNL     1     -25.797  -1.758  -9.756  0.00  0.00    +0.019 A 
ATOM     10  C   UNL     1     -25.775  -0.888 -10.847  0.00  0.00    +0.052 A 
ATOM     11  C   UNL     1     -25.360   0.432 -10.663  0.00  0.00    +0.019 A 
ATOM     12  C   UNL     1     -24.966   0.879  -9.395  0.00  0.00    +0.011 A 
BRANCH  10  13
ATOM     13  C   UNL     1     -26.177  -1.346 -12.144  0.00  0.00    +0.099 C 
ATOM     14  N   UNL     1     -26.505  -1.717 -13.193  0.00  0.00    -0.191 NA
ENDBRANCH  10  13
ENDBRANCH   5   7
BRANCH   1  16
ATOM     15  N   UNL     1     -22.270   3.959  -5.866  0.00  0.00    -0.280 N 
ATOM     16  C   UNL     1     -21.948   2.648  -5.570  0.00  0.00    +0.268 C 
ATOM     17  O   UNL     1     -20.849   2.198  -5.271  0.00  0.00    -0.268 OA
ATOM     18  H   UNL     1     -23.249   4.106  -6.100  0.00  0.00    +0.155 HD
BRANCH  15  25
ATOM     19  C   UNL     1     -20.511   7.727  -8.480  0.00  0.00    +0.044 C 
ATOM     20  C   UNL     1     -20.574   6.964  -7.190  0.00  0.00    -0.048 A 
ATOM     21  C   UNL     1     -19.777   7.342  -6.104  0.00  0.00    +0.006 A 
ATOM     22  C   UNL     1     -19.815   6.620  -4.906  0.00  0.00    -0.048 A 
ATOM     23  C   UNL     1     -18.941   7.014  -3.752  0.00  0.00    +0.044 C 
ATOM     24  C   UNL     1     -20.635   5.484  -4.812  0.00  0.00    +0.026 A 
ATOM     25  C   UNL     1     -21.425   5.083  -5.890  0.00  0.00    +0.034 A 
ATOM     26  C   UNL     1     -21.386   5.828  -7.076  0.00  0.00    +0.026 A 
ENDBRANCH  15  25
ENDBRANCH   1  16
TORSDOF 4
ENDMDL
MODEL 3
REMARK VINA RESULT:    -4.944     11.011     14.689
REMARK INTER + INTRA:          -6.369
REMARK INTER:                  -6.095
REMARK INTRA:                  -0.274
REMARK UNBOUND:                -0.269
REMARK  Name = 
REMARK  6 active torsions:
REMARK  status: ('A' for Active; 'I' for Inactive)
REMARK    1  A    between atoms: C_1  and  C_2
REMARK    2  A    between atoms: C_4  and  C_5
REMARK    3  A    between atoms: C_7  and  N_8
REMARK    4  A    between atoms: C_9  and  C_11
REMARK    5  A    between atoms: C_15  and  C_16
REMARK    6  A    between atoms: C_19  and  C_20
REMARK                            x       y       z     vdW  Elec       q    Type
REMARK                         _______ _______ _______ _____ _____    ______ ____
ROOT
ATOM      1  C   UNL     1     -22.798  15.997 -12.675  0.00  0.00    +0.144 A 
ATOM      2  C   UNL     1     -22.394  15.052 -11.748  0.00  0.00    +0.143 A 
ATOM      3  N   UNL     1     -21.178  14.457 -11.815  0.00  0.00    -0.259 NA
ATOM      4  C   UNL     1     -20.393  14.856 -12.849  0.00  0.00    +0.139 A 
ATOM      5  C   UNL     1     -20.782  15.813 -13.791  0.00  0.00    +0.090 A 
ATOM      6  N   UNL     1     -22.008  16.398 -13.716  0.00  0.00    -0.239 NA
ENDROOT
BRANCH   5   7
ATOM      7  C   UNL     1     -19.926  16.245 -14.911  0.00  0.00    +0.002 A 
ATOM      8  C   UNL     1     -19.983  15.583 -16.152  0.00  0.00    +0.011 A 
ATOM      9  C   UNL     1     -19.178  15.977 -17.229  0.00  0.00    +0.019 A 
ATOM     10  C   UNL     1     -18.297  17.050 -17.089  0.00  0.00    +0.052 A 
ATOM     11  C   UNL     1     -18.229  17.726 -15.869  0.00  0.00    +0.019 A 
ATOM     12  C   UNL     1     -19.034  17.327 -14.794  0.00  0.00    +0.011 A 
BRANCH  10  13
ATOM     13  C   UNL     1     -17.474  17.456 -18.189  0.00  0.00    +0.099 C 
ATOM     14  N   UNL     1     -16.808  17.785 -19.080  0.00  0.00    -0.191 NA
ENDBRANCH  10  13
ENDBRANCH   5   7
BRANCH   1  16
ATOM     15  N   UNL     1     -25.047  15.860 -11.864  0.00  0.00    -0.280 N 
ATOM     16  C   UNL     1     -24.142  16.633 -12.566  0.00  0.00    +0.268 C 
ATOM     17  O   UNL     1     -24.334  17.729 -13.078  0.00  0.00    -0.268 OA
ATOM     18  H   UNL     1     -24.672  14.973 -11.534  0.00  0.00    +0.155 HD
BRANCH  15  25
ATOM     19  C   UNL     1     -29.387  17.438 -13.539  0.00  0.00    +0.044 C 
ATOM     20  C   UNL     1     -28.549  16.906 -12.414  0.00  0.00    -0.048 A 
ATOM     21  C   UNL     1     -29.092  16.766 -11.132  0.00  0.00    +0.006 A 
ATOM     22  C   UNL     1     -28.308  16.293 -10.074  0.00  0.00    -0.048 A 
ATOM     23  C   UNL     1     -28.887  16.166  -8.695  0.00  0.00    +0.044 C 
ATOM     24  C   UNL     1     -26.955  15.993 -10.298  0.00  0.00    +0.026 A 
ATOM     25  C   UNL     1     -26.392  16.142 -11.566  0.00  0.00    +0.034 A 
ATOM     26  C   UNL     1     -27.197  16.602 -12.618  0.00  0.00    +0.026 A 
ENDBRANCH  15  25
ENDBRANCH   1  16
TORSDOF 4
ENDMDL
MODEL 4
REMARK VINA RESULT:    -4.868      4.974      8.989
REMARK INTER + INTRA:          -6.275
REMARK INTER:                  -5.785
REMARK INTRA:                  -0.490
REMARK UNBOUND:                -0.269
REMARK  Name = 
REMARK  6 active torsions:
REMARK  status: ('A' for Active; 'I' for Inactive)
REMARK    1  A    between atoms: C_1  and  C_2
REMARK    2  A    between atoms: C_4  and  C_5
REMARK    3  A    between atoms: C_7  and  N_8
REMARK    4  A    between atoms: C_9  and  C_11
REMARK    5  A    between atoms: C_15  and  C_16
REMARK    6  A    between atoms: C_19  and  C_20
REMARK                            x       y       z     vdW  Elec       q    Type
REMARK                         _______ _______ _______ _____ _____    ______ ____
ROOT
ATOM      1  C   UNL     1     -24.758  -0.556  -6.713  0.00  0.00    +0.144 A 
ATOM      2  C   UNL     1     -25.376  -1.021  -5.565  0.00  0.00    +0.143 A 
ATOM      3  N   UNL     1     -25.155  -0.456  -4.354  0.00  0.00    -0.259 NA
ATOM      4  C   UNL     1     -24.290   0.591  -4.352  0.00  0.00    +0.139 A 
ATOM      5  C   UNL     1     -23.661   1.079  -5.501  0.00  0.00    +0.090 A 
ATOM      6  N   UNL     1     -23.888   0.498  -6.710  0.00  0.00    -0.239 NA
ENDROOT
BRANCH   5   7
ATOM      7  C   UNL     1     -22.725   2.217  -5.494  0.00  0.00    +0.002 A 
ATOM      8  C   UNL     1     -23.162   3.505  -5.858  0.00  0.00    +0.011 A 
ATOM      9  C   UNL     1     -22.290   4.601  -5.859  0.00  0.00    +0.019 A 
ATOM     10  C   UNL     1     -20.956   4.434  -5.488  0.00  0.00    +0.052 A 
ATOM     11  C   UNL     1     -20.502   3.167  -5.115  0.00  0.00    +0.019 A 
ATOM     12  C   UNL     1     -21.377   2.073  -5.118  0.00  0.00    +0.011 A 
BRANCH  10  13
ATOM     13  C   UNL     1     -20.061   5.553  -5.485  0.00  0.00    +0.099 C 
ATOM     14  N   UNL     1     -19.336   6.459  -5.485  0.00  0.00    -0.191 NA
ENDBRANCH  10  13
ENDBRANCH   5   7
BRANCH   1  16
ATOM     15  N   UNL     1     -25.517  -0.314  -8.971  0.00  0.00    -0.280 N 
ATOM     16  C   UNL     1     -25.031  -1.200  -8.030  0.00  0.00    +0.268 C 
ATOM     17  O   UNL     1     -24.819  -2.398  -8.171  0.00  0.00    -0.268 OA
ATOM     18  H   UNL     1     -25.626   0.640  -8.631  0.00  0.00    +0.155 HD
BRANCH  15  25
ATOM     19  C   UNL     1     -24.598   0.565 -13.716  0.00  0.00    +0.044 C 
ATOM     20  C   UNL     1     -25.398  -0.141 -12.662  0.00  0.00    -0.048 A 
ATOM     21  C   UNL     1     -26.478  -0.955 -13.019  0.00  0.00    +0.006 A 
ATOM     22  C   UNL     1     -27.242  -1.597 -12.038  0.00  0.00    -0.048 A 
ATOM     23  C   UNL     1     -28.415  -2.451 -12.424  0.00  0.00    +0.044 C 
ATOM     24  C   UNL     1     -26.941  -1.388 -10.683  0.00  0.00    +0.026 A 
ATOM     25  C   UNL     1     -25.878  -0.567 -10.307  0.00  0.00    +0.034 A 
ATOM     26  C   UNL     1     -25.113   0.055 -11.304  0.00  0.00    +0.026 A 
ENDBRANCH  15  25
ENDBRANCH   1  16
TORSDOF 4
ENDMDL
