MODEL 1
REMARK VINA RESULT:    -7.557      0.000      0.000
REMARK INTER + INTRA:          -8.728
REMARK INTER:                  -8.441
REMARK INTRA:                  -0.288
REMARK UNBOUND:                -0.288
REMARK  Name = 
REMARK  2 active torsions:
REMARK  status: ('A' for Active; 'I' for Inactive)
REMARK    1  A    between atoms: N_8  and  C_9
REMARK    2  A    between atoms: C_9  and  C_10
REMARK                            x       y       z     vdW  Elec       q    Type
REMARK                         _______ _______ _______ _____ _____    ______ ____
ROOT
ATOM      1  C   UNL     1     -19.033   0.107  19.321  0.00  0.00    +0.120 C 
ENDROOT
BRANCH   1   2
ATOM      2  C   UNL     1     -17.774  -0.606  19.771  0.00  0.00    -0.025 A 
ATOM      3  C   UNL     1     -17.714  -2.020  19.767  0.00  0.00    +0.005 A 
ATOM      4  C   UNL     1     -16.562  -2.722  20.154  0.00  0.00    +0.001 A 
ATOM      5  C   UNL     1     -15.430  -2.038  20.576  0.00  0.00    +0.004 A 
ATOM      6  C   UNL     1     -15.493  -0.654  20.627  0.00  0.00    -0.035 A 
ATOM      7  C   UNL     1     -16.653   0.078  20.257  0.00  0.00    -0.010 A 
ATOM      8  C   UNL     1     -16.374   1.494  20.501  0.00  0.00    -0.014 A 
ATOM      9  C   UNL     1     -17.159   2.633  20.396  0.00  0.00    +0.009 A 
ATOM     10  C   UNL     1     -16.603   3.881  20.714  0.00  0.00    +0.001 A 
ATOM     11  C   UNL     1     -15.275   3.990  21.147  0.00  0.00    +0.000 A 
ATOM     12  C   UNL     1     -14.482   2.853  21.281  0.00  0.00    +0.004 A 
ATOM     13  C   UNL     1     -15.044   1.625  20.963  0.00  0.00    -0.035 A 
ATOM     14  C   UNL     1     -14.383   0.272  21.071  0.00  0.00    +0.071 C 
ENDBRANCH   1   2
BRANCH   1  22
ATOM     15  C   UNL     1     -19.336   3.780  11.790  0.00  0.00    +0.039 A 
ATOM     16  C   UNL     1     -20.229   4.075  12.785  0.00  0.00    +0.116 A 
ATOM     17  N   UNL     1     -20.278   3.419  13.960  0.00  0.00    -0.223 NA
ATOM     18  C   UNL     1     -19.398   2.422  14.164  0.00  0.00    +0.218 A 
ATOM     19  N   UNL     1     -19.452   1.705  15.362  0.00  0.00    -0.297 N 
ATOM     20  C   UNL     1     -18.190   1.038  15.709  0.00  0.00    +0.123 C 
ATOM     21  C   UNL     1     -18.352   0.193  16.993  0.00  0.00    +0.103 C 
ATOM     22  N   UNL     1     -18.877   0.976  18.134  0.00  0.00    -0.295 NA
ATOM     23  C   UNL     1     -20.179   1.565  17.731  0.00  0.00    +0.103 C 
ATOM     24  C   UNL     1     -20.067   2.451  16.469  0.00  0.00    +0.123 C 
ATOM     25  N   UNL     1     -18.491   2.069  13.234  0.00  0.00    -0.223 NA
ATOM     26  C   UNL     1     -18.478   2.751  12.073  0.00  0.00    +0.116 A 
ENDBRANCH   1  22
TORSDOF 2
ENDMDL
MODEL 2
REMARK VINA RESULT:    -7.300      2.099      3.768
REMARK INTER + INTRA:          -8.441
REMARK INTER:                  -8.018
REMARK INTRA:                  -0.423
REMARK UNBOUND:                -0.288
REMARK  Name = 
REMARK  2 active torsions:
REMARK  status: ('A' for Active; 'I' for Inactive)
REMARK    1  A    between atoms: N_8  and  C_9
REMARK    2  A    between atoms: C_9  and  C_10
REMARK                            x       y       z     vdW  Elec       q    Type
REMARK                         _______ _______ _______ _____ _____    ______ ____
ROOT
ATOM      1  C   UNL     1     -18.015  -1.119  18.491  0.00  0.00    +0.120 C 
ENDROOT
BRANCH   1   2
ATOM      2  C   UNL     1     -17.637  -0.717  19.902  0.00  0.00    -0.025 A 
ATOM      3  C   UNL     1     -16.278  -0.537  20.253  0.00  0.00    +0.005 A 
ATOM      4  C   UNL     1     -15.882  -0.143  21.541  0.00  0.00    +0.001 A 
ATOM      5  C   UNL     1     -16.829   0.069  22.533  0.00  0.00    +0.004 A 
ATOM      6  C   UNL     1     -18.160  -0.149  22.213  0.00  0.00    -0.035 A 
ATOM      7  C   UNL     1     -18.583  -0.565  20.922  0.00  0.00    -0.010 A 
ATOM      8  C   UNL     1     -20.033  -0.755  20.976  0.00  0.00    -0.014 A 
ATOM      9  C   UNL     1     -20.951  -1.222  20.046  0.00  0.00    +0.009 A 
ATOM     10  C   UNL     1     -22.306  -1.301  20.398  0.00  0.00    +0.001 A 
ATOM     11  C   UNL     1     -22.742  -0.931  21.678  0.00  0.00    +0.000 A 
ATOM     12  C   UNL     1     -21.829  -0.485  22.631  0.00  0.00    +0.004 A 
ATOM     13  C   UNL     1     -20.492  -0.410  22.268  0.00  0.00    -0.035 A 
ATOM     14  C   UNL     1     -19.338   0.007  23.149  0.00  0.00    +0.071 C 
ENDBRANCH   1   2
BRANCH   1  22
ATOM     15  C   UNL     1     -19.376   4.046  12.028  0.00  0.00    +0.039 A 
ATOM     16  C   UNL     1     -20.099   4.119  13.190  0.00  0.00    +0.116 A 
ATOM     17  N   UNL     1     -19.984   3.232  14.195  0.00  0.00    -0.223 NA
ATOM     18  C   UNL     1     -19.108   2.221  14.049  0.00  0.00    +0.218 A 
ATOM     19  N   UNL     1     -18.995   1.269  15.065  0.00  0.00    -0.297 N 
ATOM     20  C   UNL     1     -17.712   0.553  15.065  0.00  0.00    +0.123 C 
ATOM     21  C   UNL     1     -17.696  -0.543  16.155  0.00  0.00    +0.103 C 
ATOM     22  N   UNL     1     -18.021  -0.020  17.501  0.00  0.00    -0.295 NA
ATOM     23  C   UNL     1     -19.354   0.630  17.436  0.00  0.00    +0.103 C 
ATOM     24  C   UNL     1     -19.414   1.761  16.385  0.00  0.00    +0.123 C 
ATOM     25  N   UNL     1     -18.363   2.077  12.936  0.00  0.00    -0.223 NA
ATOM     26  C   UNL     1     -18.511   2.987  11.955  0.00  0.00    +0.116 A 
ENDBRANCH   1  22
TORSDOF 2
ENDMDL
MODEL 3
REMARK VINA RESULT:    -7.197      2.890      4.295
REMARK INTER + INTRA:          -8.326
REMARK INTER:                  -8.287
REMARK INTRA:                  -0.039
REMARK UNBOUND:                -0.288
REMARK  Name = 
REMARK  2 active torsions:
REMARK  status: ('A' for Active; 'I' for Inactive)
REMARK    1  A    between atoms: N_8  and  C_9
REMARK    2  A    between atoms: C_9  and  C_10
REMARK                            x       y       z     vdW  Elec       q    Type
REMARK                         _______ _______ _______ _____ _____    ______ ____
ROOT
ATOM      1  C   UNL     1     -18.992  -0.387  19.706  0.00  0.00    +0.120 C 
ENDROOT
BRANCH   1   2
ATOM      2  C   UNL     1     -20.168  -0.867  20.534  0.00  0.00    -0.025 A 
ATOM      3  C   UNL     1     -21.462  -0.930  19.965  0.00  0.00    +0.005 A 
ATOM      4  C   UNL     1     -22.576  -1.388  20.686  0.00  0.00    +0.001 A 
ATOM      5  C   UNL     1     -22.442  -1.785  22.009  0.00  0.00    +0.004 A 
ATOM      6  C   UNL     1     -21.188  -1.684  22.590  0.00  0.00    -0.035 A 
ATOM      7  C   UNL     1     -20.049  -1.207  21.887  0.00  0.00    -0.010 A 
ATOM      8  C   UNL     1     -18.930  -1.178  22.830  0.00  0.00    -0.014 A 
ATOM      9  C   UNL     1     -17.621  -0.734  22.715  0.00  0.00    +0.009 A 
ATOM     10  C   UNL     1     -16.764  -0.830  23.821  0.00  0.00    +0.001 A 
ATOM     11  C   UNL     1     -17.215  -1.354  25.040  0.00  0.00    +0.000 A 
ATOM     12  C   UNL     1     -18.533  -1.780  25.178  0.00  0.00    +0.004 A 
ATOM     13  C   UNL     1     -19.371  -1.680  24.076  0.00  0.00    -0.035 A 
ATOM     14  C   UNL     1     -20.835  -2.045  24.016  0.00  0.00    +0.071 C 
ENDBRANCH   1   2
BRANCH   1  22
ATOM     15  C   UNL     1     -19.647   3.189  12.151  0.00  0.00    +0.039 A 
ATOM     16  C   UNL     1     -18.670   2.275  12.448  0.00  0.00    +0.116 A 
ATOM     17  N   UNL     1     -18.469   1.774  13.680  0.00  0.00    -0.223 NA
ATOM     18  C   UNL     1     -19.275   2.195  14.673  0.00  0.00    +0.218 A 
ATOM     19  N   UNL     1     -19.063   1.714  15.967  0.00  0.00    -0.297 N 
ATOM     20  C   UNL     1     -20.249   1.798  16.831  0.00  0.00    +0.123 C 
ATOM     21  C   UNL     1     -19.915   1.335  18.267  0.00  0.00    +0.103 C 
ATOM     22  N   UNL     1     -19.311  -0.016  18.311  0.00  0.00    -0.295 NA
ATOM     23  C   UNL     1     -18.088  -0.004  17.470  0.00  0.00    +0.103 C 
ATOM     24  C   UNL     1     -18.373   0.417  16.010  0.00  0.00    +0.123 C 
ATOM     25  N   UNL     1     -20.255   3.093  14.464  0.00  0.00    -0.223 NA
ATOM     26  C   UNL     1     -20.421   3.568  13.215  0.00  0.00    +0.116 A 
ENDBRANCH   1  22
TORSDOF 2
ENDMDL
MODEL 4
REMARK VINA RESULT:    -6.972      2.583      7.868
REMARK INTER + INTRA:          -8.075
REMARK INTER:                  -7.688
REMARK INTRA:                  -0.387
REMARK UNBOUND:                -0.288
REMARK  Name = 
REMARK  2 active torsions:
REMARK  status: ('A' for Active; 'I' for Inactive)
REMARK    1  A    between atoms: N_8  and  C_9
REMARK    2  A    between atoms: C_9  and  C_10
REMARK                            x       y       z     vdW  Elec       q    Type
REMARK                         _______ _______ _______ _____ _____    ______ ____
ROOT
ATOM      1  C   UNL     1     -18.933   0.244  18.836  0.00  0.00    +0.120 C 
ENDROOT
BRANCH   1   2
ATOM      2  C   UNL     1     -20.059   1.249  18.691  0.00  0.00    -0.025 A 
ATOM      3  C   UNL     1     -20.929   1.508  19.776  0.00  0.00    +0.005 A 
ATOM      4  C   UNL     1     -21.971   2.445  19.695  0.00  0.00    +0.001 A 
ATOM      5  C   UNL     1     -22.193   3.148  18.518  0.00  0.00    +0.004 A 
ATOM      6  C   UNL     1     -21.376   2.869  17.434  0.00  0.00    -0.035 A 
ATOM      7  C   UNL     1     -20.327   1.913  17.488  0.00  0.00    -0.010 A 
ATOM      8  C   UNL     1     -19.730   1.841  16.153  0.00  0.00    -0.014 A 
ATOM      9  C   UNL     1     -18.738   1.035  15.613  0.00  0.00    +0.009 A 
ATOM     10  C   UNL     1     -18.377   1.198  14.268  0.00  0.00    +0.001 A 
ATOM     11  C   UNL     1     -19.013   2.151  13.461  0.00  0.00    +0.000 A 
ATOM     12  C   UNL     1     -20.027   2.951  13.981  0.00  0.00    +0.004 A 
ATOM     13  C   UNL     1     -20.374   2.780  15.314  0.00  0.00    -0.035 A 
ATOM     14  C   UNL     1     -21.462   3.508  16.066  0.00  0.00    +0.071 C 
ENDBRANCH   1   2
BRANCH   1  22
ATOM     15  C   UNL     1     -12.089   2.023  23.340  0.00  0.00    +0.039 A 
ATOM     16  C   UNL     1     -12.866   2.997  22.773  0.00  0.00    +0.116 A 
ATOM     17  N   UNL     1     -13.900   2.740  21.950  0.00  0.00    -0.223 NA
ATOM     18  C   UNL     1     -14.183   1.454  21.673  0.00  0.00    +0.218 A 
ATOM     19  N   UNL     1     -15.230   1.163  20.796  0.00  0.00    -0.297 N 
ATOM     20  C   UNL     1     -15.784  -0.187  20.962  0.00  0.00    +0.123 C 
ATOM     21  C   UNL     1     -16.872  -0.468  19.901  0.00  0.00    +0.103 C 
ATOM     22  N   UNL     1     -17.942   0.556  19.888  0.00  0.00    -0.295 NA
ATOM     23  C   UNL     1     -17.313   1.880  19.651  0.00  0.00    +0.103 C 
ATOM     24  C   UNL     1     -16.241   2.227  20.710  0.00  0.00    +0.123 C 
ATOM     25  N   UNL     1     -13.464   0.438  22.188  0.00  0.00    -0.223 NA
ATOM     26  C   UNL     1     -12.438   0.741  23.006  0.00  0.00    +0.116 A 
ENDBRANCH   1  22
TORSDOF 2
ENDMDL
MODEL 5
REMARK VINA RESULT:    -6.947      3.648      7.841
REMARK INTER + INTRA:          -8.047
REMARK INTER:                  -7.932
REMARK INTRA:                  -0.115
REMARK UNBOUND:                -0.288
REMARK  Name = 
REMARK  2 active torsions:
REMARK  status: ('A' for Active; 'I' for Inactive)
REMARK    1  A    between atoms: N_8  and  C_9
REMARK    2  A    between atoms: C_9  and  C_10
REMARK                            x       y       z     vdW  Elec       q    Type
REMARK                         _______ _______ _______ _____ _____    ______ ____
ROOT
ATOM      1  C   UNL     1     -19.517   2.335  18.028  0.00  0.00    +0.120 C 
ENDROOT
BRANCH   1   2
ATOM      2  C   UNL     1     -18.885   1.409  17.008  0.00  0.00    -0.025 A 
ATOM      3  C   UNL     1     -18.109   0.304  17.432  0.00  0.00    +0.005 A 
ATOM      4  C   UNL     1     -17.523  -0.593  16.525  0.00  0.00    +0.001 A 
ATOM      5  C   UNL     1     -17.677  -0.409  15.157  0.00  0.00    +0.004 A 
ATOM      6  C   UNL     1     -18.396   0.695  14.730  0.00  0.00    -0.035 A 
ATOM      7  C   UNL     1     -18.983   1.626  15.629  0.00  0.00    -0.010 A 
ATOM      8  C   UNL     1     -19.599   2.683  14.826  0.00  0.00    -0.014 A 
ATOM      9  C   UNL     1     -20.234   3.869  15.168  0.00  0.00    +0.009 A 
ATOM     10  C   UNL     1     -20.725   4.702  14.152  0.00  0.00    +0.001 A 
ATOM     11  C   UNL     1     -20.571   4.362  12.802  0.00  0.00    +0.000 A 
ATOM     12  C   UNL     1     -19.914   3.188  12.442  0.00  0.00    +0.004 A 
ATOM     13  C   UNL     1     -19.433   2.372  13.456  0.00  0.00    -0.035 A 
ATOM     14  C   UNL     1     -18.663   1.083  13.293  0.00  0.00    +0.071 C 
ENDBRANCH   1   2
BRANCH   1  22
ATOM     15  C   UNL     1     -24.755  -0.809  23.770  0.00  0.00    +0.039 A 
ATOM     16  C   UNL     1     -24.417  -1.494  22.633  0.00  0.00    +0.116 A 
ATOM     17  N   UNL     1     -23.675  -0.969  21.641  0.00  0.00    -0.223 NA
ATOM     18  C   UNL     1     -23.241   0.297  21.778  0.00  0.00    +0.218 A 
ATOM     19  N   UNL     1     -22.497   0.874  20.746  0.00  0.00    -0.297 N 
ATOM     20  C   UNL     1     -21.655   1.997  21.180  0.00  0.00    +0.123 C 
ATOM     21  C   UNL     1     -20.935   2.641  19.974  0.00  0.00    +0.103 C 
ATOM     22  N   UNL     1     -20.158   1.663  19.179  0.00  0.00    -0.295 NA
ATOM     23  C   UNL     1     -21.085   0.596  18.723  0.00  0.00    +0.103 C 
ATOM     24  C   UNL     1     -21.806  -0.107  19.896  0.00  0.00    +0.123 C 
ATOM     25  N   UNL     1     -23.533   1.038  22.863  0.00  0.00    -0.223 NA
ATOM     26  C   UNL     1     -24.279   0.474  23.832  0.00  0.00    +0.116 A 
ENDBRANCH   1  22
TORSDOF 2
ENDMDL
MODEL 6
REMARK VINA RESULT:    -6.757      4.011      6.192
REMARK INTER + INTRA:          -7.835
REMARK INTER:                  -7.393
REMARK INTRA:                  -0.442
REMARK UNBOUND:                -0.288
REMARK  Name = 
REMARK  2 active torsions:
REMARK  status: ('A' for Active; 'I' for Inactive)
REMARK    1  A    between atoms: N_8  and  C_9
REMARK    2  A    between atoms: C_9  and  C_10
REMARK                            x       y       z     vdW  Elec       q    Type
REMARK                         _______ _______ _______ _____ _____    ______ ____
ROOT
ATOM      1  C   UNL     1     -22.104   2.643  20.574  0.00  0.00    +0.120 C 
ENDROOT
BRANCH   1   2
ATOM      2  C   UNL     1     -23.322   1.948  21.150  0.00  0.00    -0.025 A 
ATOM      3  C   UNL     1     -24.600   2.548  21.050  0.00  0.00    +0.005 A 
ATOM      4  C   UNL     1     -25.758   1.932  21.548  0.00  0.00    +0.001 A 
ATOM      5  C   UNL     1     -25.681   0.699  22.181  0.00  0.00    +0.004 A 
ATOM      6  C   UNL     1     -24.428   0.123  22.326  0.00  0.00    -0.035 A 
ATOM      7  C   UNL     1     -23.240   0.736  21.845  0.00  0.00    -0.010 A 
ATOM      8  C   UNL     1     -22.117  -0.120  22.232  0.00  0.00    -0.014 A 
ATOM      9  C   UNL     1     -20.743   0.021  22.098  0.00  0.00    +0.009 A 
ATOM     10  C   UNL     1     -19.899  -0.987  22.586  0.00  0.00    +0.001 A 
ATOM     11  C   UNL     1     -20.422  -2.124  23.217  0.00  0.00    +0.000 A 
ATOM     12  C   UNL     1     -21.798  -2.268  23.380  0.00  0.00    +0.004 A 
ATOM     13  C   UNL     1     -22.622  -1.264  22.893  0.00  0.00    -0.035 A 
ATOM     14  C   UNL     1     -24.127  -1.198  22.996  0.00  0.00    +0.071 C 
ENDBRANCH   1   2
BRANCH   1  22
ATOM     15  C   UNL     1     -19.283   2.478  12.680  0.00  0.00    +0.039 A 
ATOM     16  C   UNL     1     -18.768   1.672  13.660  0.00  0.00    +0.116 A 
ATOM     17  N   UNL     1     -19.118   1.758  14.957  0.00  0.00    -0.223 NA
ATOM     18  C   UNL     1     -20.026   2.688  15.305  0.00  0.00    +0.218 A 
ATOM     19  N   UNL     1     -20.380   2.819  16.650  0.00  0.00    -0.297 N 
ATOM     20  C   UNL     1     -21.692   3.446  16.858  0.00  0.00    +0.123 C 
ATOM     21  C   UNL     1     -21.974   3.640  18.365  0.00  0.00    +0.103 C 
ATOM     22  N   UNL     1     -21.849   2.385  19.141  0.00  0.00    -0.295 NA
ATOM     23  C   UNL     1     -20.481   1.847  18.932  0.00  0.00    +0.103 C 
ATOM     24  C   UNL     1     -20.160   1.599  17.440  0.00  0.00    +0.123 C 
ATOM     25  N   UNL     1     -20.577   3.522  14.403  0.00  0.00    -0.223 NA
ATOM     26  C   UNL     1     -20.197   3.400  13.117  0.00  0.00    +0.116 A 
ENDBRANCH   1  22
TORSDOF 2
ENDMDL
MODEL 7
REMARK VINA RESULT:    -6.737      1.799      3.258
REMARK INTER + INTRA:          -7.812
REMARK INTER:                  -7.399
REMARK INTRA:                  -0.413
REMARK UNBOUND:                -0.288
REMARK  Name = 
REMARK  2 active torsions:
REMARK  status: ('A' for Active; 'I' for Inactive)
REMARK    1  A    between atoms: N_8  and  C_9
REMARK    2  A    between atoms: C_9  and  C_10
REMARK                            x       y       z     vdW  Elec       q    Type
REMARK                         _______ _______ _______ _____ _____    ______ ____
ROOT
ATOM      1  C   UNL     1     -19.886   0.544  18.776  0.00  0.00    +0.120 C 
ENDROOT
BRANCH   1   2
ATOM      2  C   UNL     1     -19.497   1.102  20.130  0.00  0.00    -0.025 A 
ATOM      3  C   UNL     1     -20.162   2.236  20.653  0.00  0.00    +0.005 A 
ATOM      4  C   UNL     1     -19.851   2.774  21.911  0.00  0.00    +0.001 A 
ATOM      5  C   UNL     1     -18.849   2.209  22.688  0.00  0.00    +0.004 A 
ATOM      6  C   UNL     1     -18.159   1.126  22.167  0.00  0.00    -0.035 A 
ATOM      7  C   UNL     1     -18.445   0.575  20.889  0.00  0.00    -0.010 A 
ATOM      8  C   UNL     1     -17.482  -0.501  20.650  0.00  0.00    -0.014 A 
ATOM      9  C   UNL     1     -17.245  -1.318  19.554  0.00  0.00    +0.009 A 
ATOM     10  C   UNL     1     -16.223  -2.276  19.621  0.00  0.00    +0.001 A 
ATOM     11  C   UNL     1     -15.432  -2.409  20.770  0.00  0.00    +0.000 A 
ATOM     12  C   UNL     1     -15.641  -1.580  21.869  0.00  0.00    +0.004 A 
ATOM     13  C   UNL     1     -16.656  -0.636  21.790  0.00  0.00    -0.035 A 
ATOM     14  C   UNL     1     -17.029   0.382  22.841  0.00  0.00    +0.071 C 
ENDBRANCH   1   2
BRANCH   1  22
ATOM     15  C   UNL     1     -18.997   4.118  11.244  0.00  0.00    +0.039 A 
ATOM     16  C   UNL     1     -20.054   4.399  12.069  0.00  0.00    +0.116 A 
ATOM     17  N   UNL     1     -20.285   3.756  13.228  0.00  0.00    -0.223 NA
ATOM     18  C   UNL     1     -19.427   2.786  13.595  0.00  0.00    +0.218 A 
ATOM     19  N   UNL     1     -19.666   2.083  14.778  0.00  0.00    -0.297 N 
ATOM     20  C   UNL     1     -18.465   1.454  15.345  0.00  0.00    +0.123 C 
ATOM     21  C   UNL     1     -18.821   0.621  16.596  0.00  0.00    +0.103 C 
ATOM     22  N   UNL     1     -19.553   1.402  17.619  0.00  0.00    -0.295 NA
ATOM     23  C   UNL     1     -20.782   1.950  16.991  0.00  0.00    +0.103 C 
ATOM     24  C   UNL     1     -20.479   2.824  15.753  0.00  0.00    +0.123 C 
ATOM     25  N   UNL     1     -18.367   2.448  12.838  0.00  0.00    -0.223 NA
ATOM     26  C   UNL     1     -18.174   3.116  11.686  0.00  0.00    +0.116 A 
ENDBRANCH   1  22
TORSDOF 2
ENDMDL
MODEL 8
REMARK VINA RESULT:    -6.675      2.779      7.849
REMARK INTER + INTRA:          -7.743
REMARK INTER:                  -7.282
REMARK INTRA:                  -0.461
REMARK UNBOUND:                -0.288
REMARK  Name = 
REMARK  2 active torsions:
REMARK  status: ('A' for Active; 'I' for Inactive)
REMARK    1  A    between atoms: N_8  and  C_9
REMARK    2  A    between atoms: C_9  and  C_10
REMARK                            x       y       z     vdW  Elec       q    Type
REMARK                         _______ _______ _______ _____ _____    ______ ____
ROOT
ATOM      1  C   UNL     1     -18.384  -0.314  18.568  0.00  0.00    +0.120 C 
ENDROOT
BRANCH   1   2
ATOM      2  C   UNL     1     -18.553   0.352  17.217  0.00  0.00    -0.025 A 
ATOM      3  C   UNL     1     -17.694   0.015  16.143  0.00  0.00    +0.005 A 
ATOM      4  C   UNL     1     -17.826   0.589  14.870  0.00  0.00    +0.001 A 
ATOM      5  C   UNL     1     -18.813   1.534  14.624  0.00  0.00    +0.004 A 
ATOM      6  C   UNL     1     -19.630   1.905  15.680  0.00  0.00    -0.035 A 
ATOM      7  C   UNL     1     -19.504   1.352  16.982  0.00  0.00    -0.010 A 
ATOM      8  C   UNL     1     -20.481   2.023  17.841  0.00  0.00    -0.014 A 
ATOM      9  C   UNL     1     -20.743   1.941  19.201  0.00  0.00    +0.009 A 
ATOM     10  C   UNL     1     -21.760   2.733  19.753  0.00  0.00    +0.001 A 
ATOM     11  C   UNL     1     -22.503   3.614  18.954  0.00  0.00    +0.000 A 
ATOM     12  C   UNL     1     -22.234   3.725  17.592  0.00  0.00    +0.004 A 
ATOM     13  C   UNL     1     -21.226   2.935  17.059  0.00  0.00    -0.035 A 
ATOM     14  C   UNL     1     -20.746   2.924  15.627  0.00  0.00    +0.071 C 
ENDBRANCH   1   2
BRANCH   1  22
ATOM     15  C   UNL     1     -12.298   1.515  24.036  0.00  0.00    +0.039 A 
ATOM     16  C   UNL     1     -12.707   0.230  23.798  0.00  0.00    +0.116 A 
ATOM     17  N   UNL     1     -13.757  -0.084  23.017  0.00  0.00    -0.223 NA
ATOM     18  C   UNL     1     -14.437   0.922  22.438  0.00  0.00    +0.218 A 
ATOM     19  N   UNL     1     -15.551   0.622  21.650  0.00  0.00    -0.297 N 
ATOM     20  C   UNL     1     -15.888   1.671  20.678  0.00  0.00    +0.123 C 
ATOM     21  C   UNL     1     -17.180   1.311  19.909  0.00  0.00    +0.103 C 
ATOM     22  N   UNL     1     -17.112  -0.019  19.263  0.00  0.00    -0.295 NA
ATOM     23  C   UNL     1     -16.833  -1.031  20.313  0.00  0.00    +0.103 C 
ATOM     24  C   UNL     1     -15.530  -0.738  21.091  0.00  0.00    +0.123 C 
ATOM     25  N   UNL     1     -14.101   2.212  22.626  0.00  0.00    -0.223 NA
ATOM     26  C   UNL     1     -13.044   2.481  23.416  0.00  0.00    +0.116 A 
ENDBRANCH   1  22
TORSDOF 2
ENDMDL
MODEL 9
REMARK VINA RESULT:    -6.672      2.691      8.414
REMARK INTER + INTRA:          -7.739
REMARK INTER:                  -7.406
REMARK INTRA:                  -0.334
REMARK UNBOUND:                -0.288
REMARK  Name = 
REMARK  2 active torsions:
REMARK  status: ('A' for Active; 'I' for Inactive)
REMARK    1  A    between atoms: N_8  and  C_9
REMARK    2  A    between atoms: C_9  and  C_10
REMARK                            x       y       z     vdW  Elec       q    Type
REMARK                         _______ _______ _______ _____ _____    ______ ____
ROOT
ATOM      1  C   UNL     1     -18.966   0.575  18.088  0.00  0.00    +0.120 C 
ENDROOT
BRANCH   1   2
ATOM      2  C   UNL     1     -19.949   1.715  17.917  0.00  0.00    -0.025 A 
ATOM      3  C   UNL     1     -20.743   2.143  19.008  0.00  0.00    +0.005 A 
ATOM      4  C   UNL     1     -21.650   3.209  18.903  0.00  0.00    +0.001 A 
ATOM      5  C   UNL     1     -21.811   3.878  17.697  0.00  0.00    +0.004 A 
ATOM      6  C   UNL     1     -21.073   3.438  16.610  0.00  0.00    -0.035 A 
ATOM      7  C   UNL     1     -20.162   2.350  16.688  0.00  0.00    -0.010 A 
ATOM      8  C   UNL     1     -19.621   2.133  15.345  0.00  0.00    -0.014 A 
ATOM      9  C   UNL     1     -18.765   1.173  14.824  0.00  0.00    +0.009 A 
ATOM     10  C   UNL     1     -18.427   1.220  13.464  0.00  0.00    +0.001 A 
ATOM     11  C   UNL     1     -18.952   2.211  12.624  0.00  0.00    +0.000 A 
ATOM     12  C   UNL     1     -19.832   3.166  13.126  0.00  0.00    +0.004 A 
ATOM     13  C   UNL     1     -20.158   3.109  14.474  0.00  0.00    -0.035 A 
ATOM     14  C   UNL     1     -21.114   4.014  15.213  0.00  0.00    +0.071 C 
ENDBRANCH   1   2
BRANCH   1  22
ATOM     15  C   UNL     1     -14.574  -1.225  24.999  0.00  0.00    +0.039 A 
ATOM     16  C   UNL     1     -14.483  -0.013  24.368  0.00  0.00    +0.116 A 
ATOM     17  N   UNL     1     -15.084   0.263  23.196  0.00  0.00    -0.223 NA
ATOM     18  C   UNL     1     -15.814  -0.707  22.616  0.00  0.00    +0.218 A 
ATOM     19  N   UNL     1     -16.419  -0.455  21.383  0.00  0.00    -0.297 N 
ATOM     20  C   UNL     1     -17.570  -1.324  21.099  0.00  0.00    +0.123 C 
ATOM     21  C   UNL     1     -18.128  -1.050  19.685  0.00  0.00    +0.103 C 
ATOM     22  N   UNL     1     -18.463   0.375  19.464  0.00  0.00    -0.295 NA
ATOM     23  C   UNL     1     -17.240   1.181  19.706  0.00  0.00    +0.103 C 
ATOM     24  C   UNL     1     -16.660   0.972  21.124  0.00  0.00    +0.123 C 
ATOM     25  N   UNL     1     -15.949  -1.927  23.170  0.00  0.00    -0.223 NA
ATOM     26  C   UNL     1     -15.331  -2.159  24.344  0.00  0.00    +0.116 A 
ENDBRANCH   1  22
TORSDOF 2
ENDMDL
