MODEL 1
REMARK VINA RESULT:    -6.333      0.000      0.000
REMARK INTER + INTRA:          -9.360
REMARK INTER:                  -8.554
REMARK INTRA:                  -0.806
REMARK UNBOUND:                -0.806
REMARK  Name = 
REMARK  7 active torsions:
REMARK  status: ('A' for Active; 'I' for Inactive)
REMARK    1  A    between atoms: C_1  and  C_2
REMARK    2  A    between atoms: C_2  and  O_3
REMARK    3  A    between atoms: O_3  and  C_4
REMARK    4  A    between atoms: C_4  and  C_6
REMARK    5  A    between atoms: C_11  and  S_12
REMARK    6  A    between atoms: S_12  and  N_15
REMARK    7  A    between atoms: N_15  and  C_16
REMARK                            x       y       z     vdW  Elec       q    Type
REMARK                         _______ _______ _______ _____ _____    ______ ____
ROOT
ATOM      1  S   UNL     1     -25.518  -3.606   9.213  0.00  0.00    +0.073 S 
ATOM      2  O   UNL     1     -25.239  -4.788   8.429  0.00  0.00    -0.150 OA
ATOM      3  O   UNL     1     -24.869  -2.336   8.981  0.00  0.00    -0.150 OA
ENDROOT
BRANCH   1   9
ATOM      4  C   UNL     1     -24.045  -4.077  11.506  0.00  0.00    +0.086 A 
ATOM      5  C   UNL     1     -23.928  -4.315  12.883  0.00  0.00    +0.017 A 
ATOM      6  C   UNL     1     -25.065  -4.561  13.655  0.00  0.00    +0.001 A 
ATOM      7  C   UNL     1     -26.324  -4.568  13.058  0.00  0.00    +0.002 A 
ATOM      8  C   UNL     1     -26.453  -4.310  11.692  0.00  0.00    +0.029 A 
ATOM      9  C   UNL     1     -25.312  -4.050  10.916  0.00  0.00    +0.122 A 
BRANCH   4  10
ATOM     10  C   UNL     1     -22.787  -3.891  10.759  0.00  0.00    +0.341 C 
ATOM     11  O   UNL     1     -22.200  -2.825  10.686  0.00  0.00    -0.245 OA
BRANCH  10  12
ATOM     12  O   UNL     1     -22.378  -5.096  10.304  0.00  0.00    -0.461 OA
BRANCH  12  14
ATOM     13  C   UNL     1     -20.517  -5.803  11.680  0.00  0.00    +0.048 C 
ATOM     14  C   UNL     1     -20.958  -5.311  10.314  0.00  0.00    +0.229 C 
ENDBRANCH  12  14
ENDBRANCH  10  12
ENDBRANCH   4  10
ENDBRANCH   1   9
BRANCH   1  15
ATOM     15  N   UNL     1     -27.199  -3.257   9.136  0.00  0.00    -0.215 N 
ATOM     16  H   UNL     1     -27.266  -2.301   8.768  0.00  0.00    +0.174 HD
BRANCH  15  17
ATOM     17  C   UNL     1     -27.936  -4.144   8.263  0.00  0.00    +0.066 A 
ATOM     18  C   UNL     1     -28.551  -5.278   8.802  0.00  0.00    +0.029 A 
ATOM     19  C   UNL     1     -29.241  -6.158   7.966  0.00  0.00    +0.040 A 
ATOM     20  C   UNL     1     -29.311  -5.901   6.600  0.00  0.00    +0.125 A 
ATOM     21  F   UNL     1     -29.976  -6.748   5.806  0.00  0.00    -0.205 F 
ATOM     22  C   UNL     1     -28.708  -4.777   6.049  0.00  0.00    +0.060 A 
ATOM     23  C   UNL     1     -28.019  -3.898   6.881  0.00  0.00    +0.066 A 
ATOM     24 CL   UNL     1     -27.303  -2.487   6.189  0.00  0.00    -0.081 Cl
ENDBRANCH  15  17
ENDBRANCH   1  15
TORSDOF 6
ENDMDL
MODEL 2
REMARK VINA RESULT:    -6.131      3.287      6.736
REMARK INTER + INTRA:          -9.087
REMARK INTER:                  -9.325
REMARK INTRA:                   0.238
REMARK UNBOUND:                -0.806
REMARK  Name = 
REMARK  7 active torsions:
REMARK  status: ('A' for Active; 'I' for Inactive)
REMARK    1  A    between atoms: C_1  and  C_2
REMARK    2  A    between atoms: C_2  and  O_3
REMARK    3  A    between atoms: O_3  and  C_4
REMARK    4  A    between atoms: C_4  and  C_6
REMARK    5  A    between atoms: C_11  and  S_12
REMARK    6  A    between atoms: S_12  and  N_15
REMARK    7  A    between atoms: N_15  and  C_16
REMARK                            x       y       z     vdW  Elec       q    Type
REMARK                         _______ _______ _______ _____ _____    ______ ____
ROOT
ATOM      1  S   UNL     1     -26.328  -3.271   8.783  0.00  0.00    +0.073 S 
ATOM      2  O   UNL     1     -26.309  -2.174   7.842  0.00  0.00    -0.150 OA
ATOM      3  O   UNL     1     -25.148  -4.030   9.133  0.00  0.00    -0.150 OA
ENDROOT
BRANCH   1   9
ATOM      4  C   UNL     1     -27.929  -4.506   6.896  0.00  0.00    +0.086 A 
ATOM      5  C   UNL     1     -28.847  -5.487   6.492  0.00  0.00    +0.017 A 
ATOM      6  C   UNL     1     -29.447  -6.321   7.436  0.00  0.00    +0.001 A 
ATOM      7  C   UNL     1     -29.135  -6.184   8.787  0.00  0.00    +0.002 A 
ATOM      8  C   UNL     1     -28.206  -5.225   9.197  0.00  0.00    +0.029 A 
ATOM      9  C   UNL     1     -27.591  -4.394   8.248  0.00  0.00    +0.122 A 
BRANCH   4  10
ATOM     10  C   UNL     1     -27.393  -3.628   5.838  0.00  0.00    +0.341 C 
ATOM     11  O   UNL     1     -26.433  -3.918   5.146  0.00  0.00    -0.245 OA
BRANCH  10  12
ATOM     12  O   UNL     1     -28.210  -2.558   5.717  0.00  0.00    -0.461 OA
BRANCH  12  14
ATOM     13  C   UNL     1     -29.709  -2.901   3.850  0.00  0.00    +0.048 C 
ATOM     14  C   UNL     1     -28.499  -2.150   4.371  0.00  0.00    +0.229 C 
ENDBRANCH  12  14
ENDBRANCH  10  12
ENDBRANCH   4  10
ENDBRANCH   1   9
BRANCH   1  15
ATOM     15  N   UNL     1     -26.954  -2.721  10.286  0.00  0.00    -0.215 N 
ATOM     16  H   UNL     1     -27.912  -3.087  10.338  0.00  0.00    +0.174 HD
BRANCH  15  17
ATOM     17  C   UNL     1     -26.211  -3.196  11.431  0.00  0.00    +0.066 A 
ATOM     18  C   UNL     1     -26.662  -4.328  12.118  0.00  0.00    +0.029 A 
ATOM     19  C   UNL     1     -25.971  -4.780  13.244  0.00  0.00    +0.040 A 
ATOM     20  C   UNL     1     -24.837  -4.100  13.676  0.00  0.00    +0.125 A 
ATOM     21  F   UNL     1     -24.178  -4.541  14.755  0.00  0.00    -0.205 F 
ATOM     22  C   UNL     1     -24.372  -2.976  13.004  0.00  0.00    +0.060 A 
ATOM     23  C   UNL     1     -25.061  -2.524  11.881  0.00  0.00    +0.066 A 
ATOM     24 CL   UNL     1     -24.455  -1.145  11.035  0.00  0.00    -0.081 Cl
ENDBRANCH  15  17
ENDBRANCH   1  15
TORSDOF 6
ENDMDL
MODEL 3
REMARK VINA RESULT:    -5.748      1.875      2.597
REMARK INTER + INTRA:          -8.570
REMARK INTER:                  -8.227
REMARK INTRA:                  -0.343
REMARK UNBOUND:                -0.806
REMARK  Name = 
REMARK  7 active torsions:
REMARK  status: ('A' for Active; 'I' for Inactive)
REMARK    1  A    between atoms: C_1  and  C_2
REMARK    2  A    between atoms: C_2  and  O_3
REMARK    3  A    between atoms: O_3  and  C_4
REMARK    4  A    between atoms: C_4  and  C_6
REMARK    5  A    between atoms: C_11  and  S_12
REMARK    6  A    between atoms: S_12  and  N_15
REMARK    7  A    between atoms: N_15  and  C_16
REMARK                            x       y       z     vdW  Elec       q    Type
REMARK                         _______ _______ _______ _____ _____    ______ ____
ROOT
ATOM      1  S   UNL     1     -25.103  -4.029   9.580  0.00  0.00    +0.073 S 
ATOM      2  O   UNL     1     -25.089  -5.447   9.299  0.00  0.00    -0.150 OA
ATOM      3  O   UNL     1     -24.304  -3.073   8.846  0.00  0.00    -0.150 OA
ENDROOT
BRANCH   1   9
ATOM      4  C   UNL     1     -24.569  -2.573  11.869  0.00  0.00    +0.086 A 
ATOM      5  C   UNL     1     -24.431  -2.445  13.259  0.00  0.00    +0.017 A 
ATOM      6  C   UNL     1     -24.463  -3.575  14.077  0.00  0.00    +0.001 A 
ATOM      7  C   UNL     1     -24.633  -4.839  13.514  0.00  0.00    +0.002 A 
ATOM      8  C   UNL     1     -24.793  -4.974  12.134  0.00  0.00    +0.029 A 
ATOM      9  C   UNL     1     -24.776  -3.838  11.311  0.00  0.00    +0.122 A 
BRANCH   4  10
ATOM     10  C   UNL     1     -24.459  -1.333  11.078  0.00  0.00    +0.341 C 
ATOM     11  O   UNL     1     -25.410  -0.793  10.539  0.00  0.00    -0.245 OA
BRANCH  10  12
ATOM     12  O   UNL     1     -23.190  -0.878  11.170  0.00  0.00    -0.461 OA
BRANCH  12  14
ATOM     13  C   UNL     1     -22.821   1.000  12.650  0.00  0.00    +0.048 C 
ATOM     14  C   UNL     1     -23.047   0.550  11.219  0.00  0.00    +0.229 C 
ENDBRANCH  12  14
ENDBRANCH  10  12
ENDBRANCH   4  10
ENDBRANCH   1   9
BRANCH   1  15
ATOM     15  N   UNL     1     -26.711  -3.440   9.453  0.00  0.00    -0.215 N 
ATOM     16  H   UNL     1     -26.630  -2.495   9.061  0.00  0.00    +0.174 HD
BRANCH  15  17
ATOM     17  C   UNL     1     -27.553  -4.233   8.586  0.00  0.00    +0.066 A 
ATOM     18  C   UNL     1     -28.312  -5.273   9.133  0.00  0.00    +0.029 A 
ATOM     19  C   UNL     1     -29.107  -6.066   8.302  0.00  0.00    +0.040 A 
ATOM     20  C   UNL     1     -29.137  -5.816   6.934  0.00  0.00    +0.125 A 
ATOM     21  F   UNL     1     -29.903  -6.579   6.145  0.00  0.00    -0.205 F 
ATOM     22  C   UNL     1     -28.393  -4.785   6.374  0.00  0.00    +0.060 A 
ATOM     23  C   UNL     1     -27.599  -3.994   7.201  0.00  0.00    +0.066 A 
ATOM     24 CL   UNL     1     -26.705  -2.694   6.498  0.00  0.00    -0.081 Cl
ENDBRANCH  15  17
ENDBRANCH   1  15
TORSDOF 6
ENDMDL
MODEL 4
REMARK VINA RESULT:    -5.747      3.232      6.664
REMARK INTER + INTRA:          -8.568
REMARK INTER:                  -7.900
REMARK INTRA:                  -0.668
REMARK UNBOUND:                -0.806
REMARK  Name = 
REMARK  7 active torsions:
REMARK  status: ('A' for Active; 'I' for Inactive)
REMARK    1  A    between atoms: C_1  and  C_2
REMARK    2  A    between atoms: C_2  and  O_3
REMARK    3  A    between atoms: O_3  and  C_4
REMARK    4  A    between atoms: C_4  and  C_6
REMARK    5  A    between atoms: C_11  and  S_12
REMARK    6  A    between atoms: S_12  and  N_15
REMARK    7  A    between atoms: N_15  and  C_16
REMARK                            x       y       z     vdW  Elec       q    Type
REMARK                         _______ _______ _______ _____ _____    ______ ____
ROOT
ATOM      1  S   UNL     1     -26.180  -3.915   8.299  0.00  0.00    +0.073 S 
ATOM      2  O   UNL     1     -26.645  -2.818   9.117  0.00  0.00    -0.150 OA
ATOM      3  O   UNL     1     -25.206  -3.752   7.242  0.00  0.00    -0.150 OA
ENDROOT
BRANCH   1   9
ATOM      4  C   UNL     1     -28.128  -4.351   6.386  0.00  0.00    +0.086 A 
ATOM      5  C   UNL     1     -29.191  -5.083   5.836  0.00  0.00    +0.017 A 
ATOM      6  C   UNL     1     -29.757  -6.144   6.545  0.00  0.00    +0.001 A 
ATOM      7  C   UNL     1     -29.266  -6.482   7.804  0.00  0.00    +0.002 A 
ATOM      8  C   UNL     1     -28.194  -5.773   8.351  0.00  0.00    +0.029 A 
ATOM      9  C   UNL     1     -27.614  -4.715   7.634  0.00  0.00    +0.122 A 
BRANCH   4  10
ATOM     10  C   UNL     1     -27.635  -3.208   5.595  0.00  0.00    +0.341 C 
ATOM     11  O   UNL     1     -26.987  -3.329   4.570  0.00  0.00    -0.245 OA
BRANCH  10  12
ATOM     12  O   UNL     1     -28.125  -2.071   6.137  0.00  0.00    -0.461 OA
BRANCH  12  14
ATOM     13  C   UNL     1     -27.702   0.118   7.077  0.00  0.00    +0.048 C 
ATOM     14  C   UNL     1     -27.253  -0.932   6.077  0.00  0.00    +0.229 C 
ENDBRANCH  12  14
ENDBRANCH  10  12
ENDBRANCH   4  10
ENDBRANCH   1   9
BRANCH   1  15
ATOM     15  N   UNL     1     -25.524  -5.140   9.309  0.00  0.00    -0.215 N 
ATOM     16  H   UNL     1     -24.622  -5.393   8.889  0.00  0.00    +0.174 HD
BRANCH  15  17
ATOM     17  C   UNL     1     -25.299  -4.709  10.671  0.00  0.00    +0.066 A 
ATOM     18  C   UNL     1     -26.281  -4.948  11.636  0.00  0.00    +0.029 A 
ATOM     19  C   UNL     1     -26.089  -4.511  12.949  0.00  0.00    +0.040 A 
ATOM     20  C   UNL     1     -24.919  -3.838  13.287  0.00  0.00    +0.125 A 
ATOM     21  F   UNL     1     -24.741  -3.424  14.547  0.00  0.00    -0.205 F 
ATOM     22  C   UNL     1     -23.930  -3.595  12.341  0.00  0.00    +0.060 A 
ATOM     23  C   UNL     1     -24.121  -4.030  11.032  0.00  0.00    +0.066 A 
ATOM     24 CL   UNL     1     -22.871  -3.751   9.873  0.00  0.00    -0.081 Cl
ENDBRANCH  15  17
ENDBRANCH   1  15
TORSDOF 6
ENDMDL
MODEL 5
REMARK VINA RESULT:    -5.648      3.657      7.093
REMARK INTER + INTRA:          -8.435
REMARK INTER:                  -7.890
REMARK INTRA:                  -0.545
REMARK UNBOUND:                -0.806
REMARK  Name = 
REMARK  7 active torsions:
REMARK  status: ('A' for Active; 'I' for Inactive)
REMARK    1  A    between atoms: C_1  and  C_2
REMARK    2  A    between atoms: C_2  and  O_3
REMARK    3  A    between atoms: O_3  and  C_4
REMARK    4  A    between atoms: C_4  and  C_6
REMARK    5  A    between atoms: C_11  and  S_12
REMARK    6  A    between atoms: S_12  and  N_15
REMARK    7  A    between atoms: N_15  and  C_16
REMARK                            x       y       z     vdW  Elec       q    Type
REMARK                         _______ _______ _______ _____ _____    ______ ____
ROOT
ATOM      1  S   UNL     1     -26.915  -3.228   8.716  0.00  0.00    +0.073 S 
ATOM      2  O   UNL     1     -25.767  -4.105   8.742  0.00  0.00    -0.150 OA
ATOM      3  O   UNL     1     -28.268  -3.705   8.534  0.00  0.00    -0.150 OA
ENDROOT
BRANCH   1   9
ATOM      4  C   UNL     1     -26.968  -2.139   6.175  0.00  0.00    +0.086 A 
ATOM      5  C   UNL     1     -26.800  -1.080   5.270  0.00  0.00    +0.017 A 
ATOM      6  C   UNL     1     -26.220   0.119   5.689  0.00  0.00    +0.001 A 
ATOM      7  C   UNL     1     -25.807   0.269   7.012  0.00  0.00    +0.002 A 
ATOM      8  C   UNL     1     -25.991  -0.771   7.925  0.00  0.00    +0.029 A 
ATOM      9  C   UNL     1     -26.585  -1.973   7.509  0.00  0.00    +0.122 A 
BRANCH   4  10
ATOM     10  C   UNL     1     -27.529  -3.390   5.630  0.00  0.00    +0.341 C 
ATOM     11  O   UNL     1     -26.870  -4.397   5.443  0.00  0.00    -0.245 OA
BRANCH  10  12
ATOM     12  O   UNL     1     -28.867  -3.239   5.506  0.00  0.00    -0.461 OA
BRANCH  12  14
ATOM     13  C   UNL     1     -30.231  -2.082   3.877  0.00  0.00    +0.048 C 
ATOM     14  C   UNL     1     -29.375  -3.301   4.165  0.00  0.00    +0.229 C 
ENDBRANCH  12  14
ENDBRANCH  10  12
ENDBRANCH   4  10
ENDBRANCH   1   9
BRANCH   1  15
ATOM     15  N   UNL     1     -26.968  -2.317  10.172  0.00  0.00    -0.215 N 
ATOM     16  H   UNL     1     -27.964  -2.220  10.402  0.00  0.00    +0.174 HD
BRANCH  15  17
ATOM     17  C   UNL     1     -26.294  -2.955  11.281  0.00  0.00    +0.066 A 
ATOM     18  C   UNL     1     -26.856  -4.100  11.855  0.00  0.00    +0.029 A 
ATOM     19  C   UNL     1     -26.231  -4.710  12.944  0.00  0.00    +0.040 A 
ATOM     20  C   UNL     1     -25.053  -4.173  13.453  0.00  0.00    +0.125 A 
ATOM     21  F   UNL     1     -24.459  -4.764  14.497  0.00  0.00    -0.205 F 
ATOM     22  C   UNL     1     -24.479  -3.038  12.894  0.00  0.00    +0.060 A 
ATOM     23  C   UNL     1     -25.102  -2.428  11.806  0.00  0.00    +0.066 A 
ATOM     24 CL   UNL     1     -24.361  -1.038  11.098  0.00  0.00    -0.081 Cl
ENDBRANCH  15  17
ENDBRANCH   1  15
TORSDOF 6
ENDMDL
MODEL 6
REMARK VINA RESULT:    -5.612      1.442      2.062
REMARK INTER + INTRA:          -8.386
REMARK INTER:                  -7.853
REMARK INTRA:                  -0.533
REMARK UNBOUND:                -0.806
REMARK  Name = 
REMARK  7 active torsions:
REMARK  status: ('A' for Active; 'I' for Inactive)
REMARK    1  A    between atoms: C_1  and  C_2
REMARK    2  A    between atoms: C_2  and  O_3
REMARK    3  A    between atoms: O_3  and  C_4
REMARK    4  A    between atoms: C_4  and  C_6
REMARK    5  A    between atoms: C_11  and  S_12
REMARK    6  A    between atoms: S_12  and  N_15
REMARK    7  A    between atoms: N_15  and  C_16
REMARK                            x       y       z     vdW  Elec       q    Type
REMARK                         _______ _______ _______ _____ _____    ______ ____
ROOT
ATOM      1  S   UNL     1     -25.377  -3.635   9.171  0.00  0.00    +0.073 S 
ATOM      2  O   UNL     1     -25.100  -4.812   8.380  0.00  0.00    -0.150 OA
ATOM      3  O   UNL     1     -24.768  -2.349   8.911  0.00  0.00    -0.150 OA
ENDROOT
BRANCH   1   9
ATOM      4  C   UNL     1     -23.797  -4.226  11.362  0.00  0.00    +0.086 A 
ATOM      5  C   UNL     1     -23.603  -4.451  12.733  0.00  0.00    +0.017 A 
ATOM      6  C   UNL     1     -24.699  -4.553  13.592  0.00  0.00    +0.001 A 
ATOM      7  C   UNL     1     -25.993  -4.431  13.088  0.00  0.00    +0.002 A 
ATOM      8  C   UNL     1     -26.195  -4.185  11.729  0.00  0.00    +0.029 A 
ATOM      9  C   UNL     1     -25.094  -4.068  10.866  0.00  0.00    +0.122 A 
BRANCH   4  10
ATOM     10  C   UNL     1     -22.585  -4.195  10.521  0.00  0.00    +0.341 C 
ATOM     11  O   UNL     1     -22.255  -5.109   9.785  0.00  0.00    -0.245 OA
BRANCH  10  12
ATOM     12  O   UNL     1     -22.019  -2.973  10.631  0.00  0.00    -0.461 OA
BRANCH  12  14
ATOM     13  C   UNL     1     -21.335  -1.806   8.625  0.00  0.00    +0.048 C 
ATOM     14  C   UNL     1     -20.909  -2.724   9.755  0.00  0.00    +0.229 C 
ENDBRANCH  12  14
ENDBRANCH  10  12
ENDBRANCH   4  10
ENDBRANCH   1   9
BRANCH   1  15
ATOM     15  N   UNL     1     -27.067  -3.326   9.159  0.00  0.00    -0.215 N 
ATOM     16  H   UNL     1     -27.168  -2.344   8.879  0.00  0.00    +0.174 HD
BRANCH  15  17
ATOM     17  C   UNL     1     -27.801  -4.153   8.227  0.00  0.00    +0.066 A 
ATOM     18  C   UNL     1     -27.844  -3.790   6.878  0.00  0.00    +0.029 A 
ATOM     19  C   UNL     1     -28.573  -4.563   5.972  0.00  0.00    +0.040 A 
ATOM     20  C   UNL     1     -29.255  -5.690   6.420  0.00  0.00    +0.125 A 
ATOM     21  F   UNL     1     -29.950  -6.428   5.546  0.00  0.00    -0.205 F 
ATOM     22  C   UNL     1     -29.221  -6.068   7.757  0.00  0.00    +0.060 A 
ATOM     23  C   UNL     1     -28.494  -5.297   8.661  0.00  0.00    +0.066 A 
ATOM     24 CL   UNL     1     -28.431  -5.794  10.314  0.00  0.00    -0.081 Cl
ENDBRANCH  15  17
ENDBRANCH   1  15
TORSDOF 6
ENDMDL
MODEL 7
REMARK VINA RESULT:    -5.554      4.077      7.172
REMARK INTER + INTRA:          -8.308
REMARK INTER:                  -7.761
REMARK INTRA:                  -0.548
REMARK UNBOUND:                -0.806
REMARK  Name = 
REMARK  7 active torsions:
REMARK  status: ('A' for Active; 'I' for Inactive)
REMARK    1  A    between atoms: C_1  and  C_2
REMARK    2  A    between atoms: C_2  and  O_3
REMARK    3  A    between atoms: O_3  and  C_4
REMARK    4  A    between atoms: C_4  and  C_6
REMARK    5  A    between atoms: C_11  and  S_12
REMARK    6  A    between atoms: S_12  and  N_15
REMARK    7  A    between atoms: N_15  and  C_16
REMARK                            x       y       z     vdW  Elec       q    Type
REMARK                         _______ _______ _______ _____ _____    ______ ____
ROOT
ATOM      1  S   UNL     1     -26.895  -2.553   8.330  0.00  0.00    +0.073 S 
ATOM      2  O   UNL     1     -27.699  -1.557   7.659  0.00  0.00    -0.150 OA
ATOM      3  O   UNL     1     -25.530  -2.848   7.953  0.00  0.00    -0.150 OA
ENDROOT
BRANCH   1   9
ATOM      4  C   UNL     1     -28.242  -4.651   7.133  0.00  0.00    +0.086 A 
ATOM      5  C   UNL     1     -28.873  -5.903   7.162  0.00  0.00    +0.017 A 
ATOM      6  C   UNL     1     -29.116  -6.541   8.380  0.00  0.00    +0.001 A 
ATOM      7  C   UNL     1     -28.731  -5.935   9.574  0.00  0.00    +0.002 A 
ATOM      8  C   UNL     1     -28.083  -4.698   9.554  0.00  0.00    +0.029 A 
ATOM      9  C   UNL     1     -27.825  -4.061   8.330  0.00  0.00    +0.122 A 
BRANCH   4  10
ATOM     10  C   UNL     1     -28.084  -4.022   5.808  0.00  0.00    +0.341 C 
ATOM     11  O   UNL     1     -27.035  -4.020   5.187  0.00  0.00    -0.245 OA
BRANCH  10  12
ATOM     12  O   UNL     1     -29.294  -3.585   5.394  0.00  0.00    -0.461 OA
BRANCH  12  14
ATOM     13  C   UNL     1     -30.000  -1.747   3.990  0.00  0.00    +0.048 C 
ATOM     14  C   UNL     1     -29.352  -3.118   4.038  0.00  0.00    +0.229 C 
ENDBRANCH  12  14
ENDBRANCH  10  12
ENDBRANCH   4  10
ENDBRANCH   1   9
BRANCH   1  15
ATOM     15  N   UNL     1     -26.813  -2.184  10.006  0.00  0.00    -0.215 N 
ATOM     16  H   UNL     1     -26.512  -3.051  10.466  0.00  0.00    +0.174 HD
BRANCH  15  17
ATOM     17  C   UNL     1     -25.869  -1.136  10.324  0.00  0.00    +0.066 A 
ATOM     18  C   UNL     1     -26.196   0.192  10.031  0.00  0.00    +0.029 A 
ATOM     19  C   UNL     1     -25.282   1.211  10.306  0.00  0.00    +0.040 A 
ATOM     20  C   UNL     1     -24.048   0.897  10.868  0.00  0.00    +0.125 A 
ATOM     21  F   UNL     1     -23.178   1.879  11.130  0.00  0.00    -0.205 F 
ATOM     22  C   UNL     1     -23.707  -0.416  11.168  0.00  0.00    +0.060 A 
ATOM     23  C   UNL     1     -24.619  -1.434  10.894  0.00  0.00    +0.066 A 
ATOM     24 CL   UNL     1     -24.197  -3.058  11.302  0.00  0.00    -0.081 Cl
ENDBRANCH  15  17
ENDBRANCH   1  15
TORSDOF 6
ENDMDL
MODEL 8
REMARK VINA RESULT:    -5.550      1.779      2.381
REMARK INTER + INTRA:          -8.302
REMARK INTER:                  -7.708
REMARK INTRA:                  -0.594
REMARK UNBOUND:                -0.806
REMARK  Name = 
REMARK  7 active torsions:
REMARK  status: ('A' for Active; 'I' for Inactive)
REMARK    1  A    between atoms: C_1  and  C_2
REMARK    2  A    between atoms: C_2  and  O_3
REMARK    3  A    between atoms: O_3  and  C_4
REMARK    4  A    between atoms: C_4  and  C_6
REMARK    5  A    between atoms: C_11  and  S_12
REMARK    6  A    between atoms: S_12  and  N_15
REMARK    7  A    between atoms: N_15  and  C_16
REMARK                            x       y       z     vdW  Elec       q    Type
REMARK                         _______ _______ _______ _____ _____    ______ ____
ROOT
ATOM      1  S   UNL     1     -25.432  -4.627  10.443  0.00  0.00    +0.073 S 
ATOM      2  O   UNL     1     -25.360  -5.171  11.780  0.00  0.00    -0.150 OA
ATOM      3  O   UNL     1     -25.177  -5.414   9.257  0.00  0.00    -0.150 OA
ENDROOT
BRANCH   1   9
ATOM      4  C   UNL     1     -23.023  -3.298  10.169  0.00  0.00    +0.086 A 
ATOM      5  C   UNL     1     -22.251  -2.135  10.029  0.00  0.00    +0.017 A 
ATOM      6  C   UNL     1     -22.842  -0.877  10.165  0.00  0.00    +0.001 A 
ATOM      7  C   UNL     1     -24.205  -0.773  10.439  0.00  0.00    +0.002 A 
ATOM      8  C   UNL     1     -24.985  -1.925  10.557  0.00  0.00    +0.029 A 
ATOM      9  C   UNL     1     -24.396  -3.190  10.408  0.00  0.00    +0.122 A 
BRANCH   4  10
ATOM     10  C   UNL     1     -22.303  -4.582  10.073  0.00  0.00    +0.341 C 
ATOM     11  O   UNL     1     -22.034  -5.125   9.016  0.00  0.00    -0.245 OA
BRANCH  10  12
ATOM     12  O   UNL     1     -21.917  -4.949  11.316  0.00  0.00    -0.461 OA
BRANCH  12  14
ATOM     13  C   UNL     1     -20.324  -6.466  12.322  0.00  0.00    +0.048 C 
ATOM     14  C   UNL     1     -20.517  -5.224  11.472  0.00  0.00    +0.229 C 
ENDBRANCH  12  14
ENDBRANCH  10  12
ENDBRANCH   4  10
ENDBRANCH   1   9
BRANCH   1  15
ATOM     15  N   UNL     1     -26.990  -3.949  10.187  0.00  0.00    -0.215 N 
ATOM     16  H   UNL     1     -26.830  -2.957   9.976  0.00  0.00    +0.174 HD
BRANCH  15  17
ATOM     17  C   UNL     1     -27.710  -4.549   9.086  0.00  0.00    +0.066 A 
ATOM     18  C   UNL     1     -28.508  -5.673   9.322  0.00  0.00    +0.029 A 
ATOM     19  C   UNL     1     -29.186  -6.280   8.263  0.00  0.00    +0.040 A 
ATOM     20  C   UNL     1     -29.061  -5.763   6.978  0.00  0.00    +0.125 A 
ATOM     21  F   UNL     1     -29.715  -6.349   5.968  0.00  0.00    -0.205 F 
ATOM     22  C   UNL     1     -28.275  -4.645   6.725  0.00  0.00    +0.060 A 
ATOM     23  C   UNL     1     -27.599  -4.038   7.781  0.00  0.00    +0.066 A 
ATOM     24 CL   UNL     1     -26.652  -2.630   7.461  0.00  0.00    -0.081 Cl
ENDBRANCH  15  17
ENDBRANCH   1  15
TORSDOF 6
ENDMDL
MODEL 9
REMARK VINA RESULT:    -5.451      1.948      3.320
REMARK INTER + INTRA:          -8.168
REMARK INTER:                  -7.767
REMARK INTRA:                  -0.402
REMARK UNBOUND:                -0.806
REMARK  Name = 
REMARK  7 active torsions:
REMARK  status: ('A' for Active; 'I' for Inactive)
REMARK    1  A    between atoms: C_1  and  C_2
REMARK    2  A    between atoms: C_2  and  O_3
REMARK    3  A    between atoms: O_3  and  C_4
REMARK    4  A    between atoms: C_4  and  C_6
REMARK    5  A    between atoms: C_11  and  S_12
REMARK    6  A    between atoms: S_12  and  N_15
REMARK    7  A    between atoms: N_15  and  C_16
REMARK                            x       y       z     vdW  Elec       q    Type
REMARK                         _______ _______ _______ _____ _____    ______ ____
ROOT
ATOM      1  S   UNL     1     -25.099  -4.648   9.395  0.00  0.00    +0.073 S 
ATOM      2  O   UNL     1     -24.839  -5.174  10.716  0.00  0.00    -0.150 OA
ATOM      3  O   UNL     1     -25.049  -5.460   8.200  0.00  0.00    -0.150 OA
ENDROOT
BRANCH   1   9
ATOM      4  C   UNL     1     -23.882  -2.296  10.192  0.00  0.00    +0.086 A 
ATOM      5  C   UNL     1     -22.948  -1.262  10.033  0.00  0.00    +0.017 A 
ATOM      6  C   UNL     1     -22.207  -1.157   8.854  0.00  0.00    +0.001 A 
ATOM      7  C   UNL     1     -22.394  -2.082   7.829  0.00  0.00    +0.002 A 
ATOM      8  C   UNL     1     -23.305  -3.127   7.986  0.00  0.00    +0.029 A 
ATOM      9  C   UNL     1     -24.041  -3.243   9.176  0.00  0.00    +0.122 A 
BRANCH   4  10
ATOM     10  C   UNL     1     -24.664  -2.293  11.443  0.00  0.00    +0.341 C 
ATOM     11  O   UNL     1     -25.874  -2.154  11.478  0.00  0.00    -0.245 OA
BRANCH  10  12
ATOM     12  O   UNL     1     -23.832  -2.582  12.468  0.00  0.00    -0.461 OA
BRANCH  12  14
ATOM     13  C   UNL     1     -24.605  -4.328  13.953  0.00  0.00    +0.048 C 
ATOM     14  C   UNL     1     -24.469  -2.833  13.729  0.00  0.00    +0.229 C 
ENDBRANCH  12  14
ENDBRANCH  10  12
ENDBRANCH   4  10
ENDBRANCH   1   9
BRANCH   1  15
ATOM     15  N   UNL     1     -26.658  -3.927   9.366  0.00  0.00    -0.215 N 
ATOM     16  H   UNL     1     -26.514  -2.966   9.037  0.00  0.00    +0.174 HD
BRANCH  15  17
ATOM     17  C   UNL     1     -27.587  -4.590   8.477  0.00  0.00    +0.066 A 
ATOM     18  C   UNL     1     -28.356  -5.653   8.960  0.00  0.00    +0.029 A 
ATOM     19  C   UNL     1     -29.236  -6.320   8.105  0.00  0.00    +0.040 A 
ATOM     20  C   UNL     1     -29.339  -5.922   6.775  0.00  0.00    +0.125 A 
ATOM     21  F   UNL     1     -30.185  -6.565   5.961  0.00  0.00    -0.205 F 
ATOM     22  C   UNL     1     -28.584  -4.866   6.279  0.00  0.00    +0.060 A 
ATOM     23  C   UNL     1     -27.706  -4.200   7.132  0.00  0.00    +0.066 A 
ATOM     24 CL   UNL     1     -26.798  -2.868   6.513  0.00  0.00    -0.081 Cl
ENDBRANCH  15  17
ENDBRANCH   1  15
TORSDOF 6
ENDMDL
